

 Parallel Execution: Process Information
 ==============================================================================
 Rank   Node Name                              NodeID   MyNodeRank  NodeMaster
    0   magnesium.science.psu.edu                 0          0          0
    1   magnesium.science.psu.edu                 0          1         -1
    2   magnesium.science.psu.edu                 0          2         -1
    3   magnesium.science.psu.edu                 0          3         -1
    4   magnesium.science.psu.edu                 0          4         -1
    5   magnesium.science.psu.edu                 0          5         -1
 ==============================================================================


May use up to 7495MB of RAM as shared memory on node 0
 
ATOMS
      C         0.029688    4.000000   -1.398577
      C        -1.196990    4.000000   -0.725332
      C        -1.226683    4.000000    0.673711
      C        -0.029692    4.000000    1.398648
      C         1.196955    4.000000    0.725313
      C         1.226727    4.000000   -0.673736
      H        -2.130139    4.000000   -1.291480
      H        -2.183120    4.000000    1.199796
      H        -0.052952    4.000000    2.490053
      H         2.130122    4.000000    1.291475
      H         2.183151    4.000000   -1.199796
      H         0.052934    4.000000   -2.490074
END

XC
 gga BP86
end

symmetry nosym

analyticalFreq
end

Fragments
H t21.H
C t21.C
End
end input

 *******************************************************************************
 *                                                                             *
 *  -------------------------------------                                      *
 *   Amsterdam Density Functional  (ADF)         2019                          *
 *  -------------------------------------                                      *
 *                                               r75281 2019-06-03             *
 *                                                                             *
 *                                                                             *
 *                              =================                              *
 *                              |               |                              *
 *                              |     A D F     |                              *
 *                              |               |                              *
 *                              =================                              *
 *                                                                             *
 *                                                                             *
 *   Online information and documentation:  https://www.scm.com/support/       *
 *   E-mail:  support@scm.com   info@scm.com                                   *
 *                                                                             *
 *   Scientific publications using ADF results must be properly referenced     *
 *   See the User Manuals (or the web site) for recommended citations          *
 *   The terms and conditions of the End User License Agreement apply to       *
 *   the use of ADF, https://www.scm.com/license-terms/                        *
 *                                                                             *
 **********************  x86_64_linux_intel / intelmpi  ************************
 
 Licensed to: Prof. Lasse Jensen / Penn State University / University Park / PA  / USA
 SCM User ID: u8493
  
 ADF 2019  RunTime: Sep02-2020 12:17:50  Nodes: 1  Procs: 6

 Temporary files are created in /scratch/kid_0.2016360753


Communication costs MPI_COMM_WORLD:      0.369 usec per message,   0.0066 usec per 8-byte item
Communication costs for intra-node:      0.374 usec per message,   0.0066 usec per 8-byte item

 *** (NO TITLE) ***



 ===========================
 A T T A C H E D   F I L E S
 ===========================
  



 ===============================
 M O D E L   P A R A M E T E R S
 ===============================
  
 DENSITY FUNCTIONAL POTENTIAL (scf)
    LDA:                               VWN                                      
    Gradient Corrections:              Becke88 Perdew86                        == Not Default ==

 SPIN  (restricted / unrestr.)
    Molecule:                          Restricted                               
    Fragments:                         Restricted                               

 OTHER ASPECTS
    Relativistic Corrections:          ---                                      

    Nuclear Charge Density Model:      Point Charge Nuclei                      
    Core Treatment:                    Frozen Orbital(s)                        

    Hyperfine or Zeeman Interaction:   ---                                      


 Fragment File(s)
 ----------------
 C:
         file : t21.C
         jobid: ADF 2019  RunTime: Sep02-2020 12:17:50  Nodes: 1  Procs: 1
         title: Carbon (TZP)
 H:
         file : t21.H
         jobid: ADF 2019  RunTime: Sep02-2020 12:17:49  Nodes: 1  Procs: 1
         title: Hydrogen (TZP)



                                        ************************************
                                        *  R U N   T Y P E : SINGLE POINT  *
                                        ************************************
  



 ===============
 G E O M E T R Y  ***  Planar Molecule  ***
 ===============
  

 ATOMS
 =====                            X Y Z                    CHARGE
                                (Angstrom)             Nucl     +Core       At.Mass
                       --------------------------    ----------------       -------
    1  C               0.0297    4.0000   -1.3986      6.00      6.00       12.0000
    2  C              -1.1970    4.0000   -0.7253      6.00      6.00       12.0000
    3  C              -1.2267    4.0000    0.6737      6.00      6.00       12.0000
    4  C              -0.0297    4.0000    1.3986      6.00      6.00       12.0000
    5  C               1.1970    4.0000    0.7253      6.00      6.00       12.0000
    6  C               1.2267    4.0000   -0.6737      6.00      6.00       12.0000
    7  H              -2.1301    4.0000   -1.2915      1.00      1.00        1.0078
    8  H              -2.1831    4.0000    1.1998      1.00      1.00        1.0078
    9  H              -0.0530    4.0000    2.4901      1.00      1.00        1.0078
   10  H               2.1301    4.0000    1.2915      1.00      1.00        1.0078
   11  H               2.1832    4.0000   -1.1998      1.00      1.00        1.0078
   12  H               0.0529    4.0000   -2.4901      1.00      1.00        1.0078


 FRAGMENTS
 =========                                     Atoms in this Fragment     Cart. coord.s (Angstrom)
                                               -------------------------------------------------------
    1  C                                                 1  C            0.0297    4.0000   -1.3986
    2  C                                                 2  C           -1.1970    4.0000   -0.7253
    3  C                                                 3  C           -1.2267    4.0000    0.6737
    4  C                                                 4  C           -0.0297    4.0000    1.3986
    5  C                                                 5  C            1.1970    4.0000    0.7253
    6  C                                                 6  C            1.2267    4.0000   -0.6737
    7  H                                                 7  H           -2.1301    4.0000   -1.2915
    8  H                                                 8  H           -2.1831    4.0000    1.1998
    9  H                                                 9  H           -0.0530    4.0000    2.4901
   10  H                                                10  H            2.1301    4.0000    1.2915
   11  H                                                11  H            2.1832    4.0000   -1.1998
   12  H                                                12  H            0.0529    4.0000   -2.4901


 Interatomic Distance Matrix (Angstrom)
 --------------------------------------

   1)     0.000
   2)     1.399   0.000
   3)     2.423   1.399   0.000
   4)     2.798   2.424   1.399   0.000
   5)     2.424   2.799   2.424   1.399   0.000
   6)     1.399   2.424   2.799   2.424   1.399   0.000
   7)     2.162   1.091   2.163   3.413   3.891   3.413   0.000
   8)     3.413   2.163   1.092   2.163   3.413   3.891   2.492   0.000
   9)     3.890   3.413   2.163   1.092   2.163   3.413   4.314   2.490   0.000
  10)     3.413   3.891   3.413   2.162   1.091   2.163   4.982   4.314   2.490   0.000
  11)     2.163   3.413   3.891   3.413   2.163   1.092   4.314   4.982   4.315   2.492
          0.000
  12)     1.092   2.163   3.413   3.890   3.413   2.163   2.490   4.315   4.981   4.314
          2.491   0.000

 Min. Distance =    1.0915
 Max. Distance =    4.9822



 =====================================
 S Y M M E T R Y ,   E L E C T R O N S
 =====================================
  
 Symmetry: NOSYM

 Irreducible Representations, including subspecies
 -------------------------------------------------
 A


 Configuration of Valence Electrons
 ==================================
 ( determined in the SCF procedure )

 Total:   42

 Net Charge: 0 (Nuclei minus Electrons)

 Aufbau principle for MO occupations will be applied through SCF cycle no.     150
 Thereafter, the program will assign electrons to MOs that are spatially
 similar to the occupied MOs in a "reference" cycle ("KeepOrbitals").
 The reference cycle is always the PREVIOUS cycle: it will evolve with
 the SCF procedure.
1
 ***************************************************************************************************



                                      ****************************************
                                      *  B U I L D : (Fragments, Functions)  *
                                      ****************************************
  



 =======
 S F O s  ***  (Symmetrized Fragment Orbitals)  ***
 =======
  
 SFOs are linear combinations of (valence) Fragment Orbitals (FOs), such that the SFOs transform as the
 irreducible representations of the (molecular) symmetry group. Each SFO is therefore characterized by
 an irrep of the molecule and by a few (or only one) generating FOs.
 The SFOs constitute a symmetry-adapted basis for the Fock matrix. The MO eigenvector coefficients in
 this basis provide a direct interpretation of the MOs in terms of Frontier Orbital Theory.

 The SFOs are combined with auxiliary Core Functions (CFs) to ensure orthogonalization on the (frozen)
 Core Orbitals (COs). The Core-orthogonalized SFOs (CSFOs) constitute the true Fock basis.

 The FOs, and hence also the (C)SFOs are combinations of the elementary basis functions (BAS). The basis
 functions that participate in the description of the SFOs depend on the irrep. The indices of the
 involved functions are printed below for each irrep.
 (The complete list of primitive basis functions is printed in another section)

 Total nr. of (C)SFOs (summation over all irreps) :   150

 NOTE: a (C)SFO that is defined as a combination of more than one FO is usually NOT normalized.



                                       === A ===
 Nr. of SFOs :  150
 Cartesian basis functions that participate in this irrep (total number =   156) :
      1     2     3     4     5     6     9    12     7    10
     13     8    11    14    15    16    17    18    19    20
     21    22    23    24    25    26    29    32    27    30
     33    28    31    34    35    36    37    38    39    40
     41    42    43    44    45    46    49    52    47    50
     53    48    51    54    55    56    57    58    59    60
     61    62    63    64    65    66    69    72    67    70
     73    68    71    74    75    76    77    78    79    80
     81    82    83    84    85    86    89    92    87    90
     93    88    91    94    95    96    97    98    99   100
    101   102   103   104   105   106   109   112   107   110
    113   108   111   114   115   116   117   118   119   120
    121   122   123   124   125   126   127   128   129   130
    131   132   133   134   135   136   137   138   139   140
    141   142   143   144   145   146   147   148   149   150
    151   152   153   154   155   156

    SFO  (index         Fragment          Generating    Expansion in Fragment Orbitals
  indx  incl.CFs)   Occup   Orb.Energy   FragmentType  Coeff.   Orbital     on Fragment
 --------------------------------------------------------------------------------------
     1       1      2.000     -10.058 au  C             1.00      1 S               1
                        (    -273.681 eV)
     2       2      2.000      -0.510 au  C             1.00      2 S               1
                        (     -13.876 eV)
     3       3       --         0.371 au  C             1.00      3 S               1
                        (      10.091 eV)
     4       4       --         5.428 au  C             1.00      4 S               1
                        (     147.707 eV)
     5       5       --        50.181 au  C             1.00      5 S               1
                        (    1365.486 eV)
     6       6      0.667      -0.199 au  C             1.00      1 P:x             1
                        (      -5.403 eV)
     7       7       --         0.173 au  C             1.00      2 P:x             1
                        (       4.709 eV)
     8       8       --         2.026 au  C             1.00      3 P:x             1
                        (      55.143 eV)
     9       9      0.667      -0.199 au  C             1.00      1 P:y             1
                        (      -5.403 eV)
    10      10       --         0.173 au  C             1.00      2 P:y             1
                        (       4.709 eV)
    11      11       --         2.026 au  C             1.00      3 P:y             1
                        (      55.143 eV)
    12      12      0.667      -0.199 au  C             1.00      1 P:z             1
                        (      -5.403 eV)
    13      13       --         0.173 au  C             1.00      2 P:z             1
                        (       4.709 eV)
    14      14       --         2.026 au  C             1.00      3 P:z             1
                        (      55.143 eV)
    15      15       --         1.232 au  C             1.00      1 D:z2            1
                        (      33.528 eV)
    16      16       --         1.232 au  C             1.00      1 D:x2-y2         1
                        (      33.528 eV)
    17      17       --         1.232 au  C             1.00      1 D:xy            1
                        (      33.528 eV)
    18      18       --         1.232 au  C             1.00      1 D:xz            1
                        (      33.528 eV)
    19      19       --         1.232 au  C             1.00      1 D:yz            1
                        (      33.528 eV)
    20      20      2.000     -10.058 au  C             1.00      1 S               2
                        (    -273.681 eV)
    21      21      2.000      -0.510 au  C             1.00      2 S               2
                        (     -13.876 eV)
    22      22       --         0.371 au  C             1.00      3 S               2
                        (      10.091 eV)
    23      23       --         5.428 au  C             1.00      4 S               2
                        (     147.707 eV)
    24      24       --        50.181 au  C             1.00      5 S               2
                        (    1365.486 eV)
    25      25      0.667      -0.199 au  C             1.00      1 P:x             2
                        (      -5.403 eV)
    26      26       --         0.173 au  C             1.00      2 P:x             2
                        (       4.709 eV)
    27      27       --         2.026 au  C             1.00      3 P:x             2
                        (      55.143 eV)
    28      28      0.667      -0.199 au  C             1.00      1 P:y             2
                        (      -5.403 eV)
    29      29       --         0.173 au  C             1.00      2 P:y             2
                        (       4.709 eV)
    30      30       --         2.026 au  C             1.00      3 P:y             2
                        (      55.143 eV)
    31      31      0.667      -0.199 au  C             1.00      1 P:z             2
                        (      -5.403 eV)
    32      32       --         0.173 au  C             1.00      2 P:z             2
                        (       4.709 eV)
    33      33       --         2.026 au  C             1.00      3 P:z             2
                        (      55.143 eV)
    34      34       --         1.232 au  C             1.00      1 D:z2            2
                        (      33.528 eV)
    35      35       --         1.232 au  C             1.00      1 D:x2-y2         2
                        (      33.528 eV)
    36      36       --         1.232 au  C             1.00      1 D:xy            2
                        (      33.528 eV)
    37      37       --         1.232 au  C             1.00      1 D:xz            2
                        (      33.528 eV)
    38      38       --         1.232 au  C             1.00      1 D:yz            2
                        (      33.528 eV)
    39      39      2.000     -10.058 au  C             1.00      1 S               3
                        (    -273.681 eV)
    40      40      2.000      -0.510 au  C             1.00      2 S               3
                        (     -13.876 eV)
    41      41       --         0.371 au  C             1.00      3 S               3
                        (      10.091 eV)
    42      42       --         5.428 au  C             1.00      4 S               3
                        (     147.707 eV)
    43      43       --        50.181 au  C             1.00      5 S               3
                        (    1365.486 eV)
    44      44      0.667      -0.199 au  C             1.00      1 P:x             3
                        (      -5.403 eV)
    45      45       --         0.173 au  C             1.00      2 P:x             3
                        (       4.709 eV)
    46      46       --         2.026 au  C             1.00      3 P:x             3
                        (      55.143 eV)
    47      47      0.667      -0.199 au  C             1.00      1 P:y             3
                        (      -5.403 eV)
    48      48       --         0.173 au  C             1.00      2 P:y             3
                        (       4.709 eV)
    49      49       --         2.026 au  C             1.00      3 P:y             3
                        (      55.143 eV)
    50      50      0.667      -0.199 au  C             1.00      1 P:z             3
                        (      -5.403 eV)
    51      51       --         0.173 au  C             1.00      2 P:z             3
                        (       4.709 eV)
    52      52       --         2.026 au  C             1.00      3 P:z             3
                        (      55.143 eV)
    53      53       --         1.232 au  C             1.00      1 D:z2            3
                        (      33.528 eV)
    54      54       --         1.232 au  C             1.00      1 D:x2-y2         3
                        (      33.528 eV)
    55      55       --         1.232 au  C             1.00      1 D:xy            3
                        (      33.528 eV)
    56      56       --         1.232 au  C             1.00      1 D:xz            3
                        (      33.528 eV)
    57      57       --         1.232 au  C             1.00      1 D:yz            3
                        (      33.528 eV)
    58      58      2.000     -10.058 au  C             1.00      1 S               4
                        (    -273.681 eV)
    59      59      2.000      -0.510 au  C             1.00      2 S               4
                        (     -13.876 eV)
    60      60       --         0.371 au  C             1.00      3 S               4
                        (      10.091 eV)
    61      61       --         5.428 au  C             1.00      4 S               4
                        (     147.707 eV)
    62      62       --        50.181 au  C             1.00      5 S               4
                        (    1365.486 eV)
    63      63      0.667      -0.199 au  C             1.00      1 P:x             4
                        (      -5.403 eV)
    64      64       --         0.173 au  C             1.00      2 P:x             4
                        (       4.709 eV)
    65      65       --         2.026 au  C             1.00      3 P:x             4
                        (      55.143 eV)
    66      66      0.667      -0.199 au  C             1.00      1 P:y             4
                        (      -5.403 eV)
    67      67       --         0.173 au  C             1.00      2 P:y             4
                        (       4.709 eV)
    68      68       --         2.026 au  C             1.00      3 P:y             4
                        (      55.143 eV)
    69      69      0.667      -0.199 au  C             1.00      1 P:z             4
                        (      -5.403 eV)
    70      70       --         0.173 au  C             1.00      2 P:z             4
                        (       4.709 eV)
    71      71       --         2.026 au  C             1.00      3 P:z             4
                        (      55.143 eV)
    72      72       --         1.232 au  C             1.00      1 D:z2            4
                        (      33.528 eV)
    73      73       --         1.232 au  C             1.00      1 D:x2-y2         4
                        (      33.528 eV)
    74      74       --         1.232 au  C             1.00      1 D:xy            4
                        (      33.528 eV)
    75      75       --         1.232 au  C             1.00      1 D:xz            4
                        (      33.528 eV)
    76      76       --         1.232 au  C             1.00      1 D:yz            4
                        (      33.528 eV)
    77      77      2.000     -10.058 au  C             1.00      1 S               5
                        (    -273.681 eV)
    78      78      2.000      -0.510 au  C             1.00      2 S               5
                        (     -13.876 eV)
    79      79       --         0.371 au  C             1.00      3 S               5
                        (      10.091 eV)
    80      80       --         5.428 au  C             1.00      4 S               5
                        (     147.707 eV)
    81      81       --        50.181 au  C             1.00      5 S               5
                        (    1365.486 eV)
    82      82      0.667      -0.199 au  C             1.00      1 P:x             5
                        (      -5.403 eV)
    83      83       --         0.173 au  C             1.00      2 P:x             5
                        (       4.709 eV)
    84      84       --         2.026 au  C             1.00      3 P:x             5
                        (      55.143 eV)
    85      85      0.667      -0.199 au  C             1.00      1 P:y             5
                        (      -5.403 eV)
    86      86       --         0.173 au  C             1.00      2 P:y             5
                        (       4.709 eV)
    87      87       --         2.026 au  C             1.00      3 P:y             5
                        (      55.143 eV)
    88      88      0.667      -0.199 au  C             1.00      1 P:z             5
                        (      -5.403 eV)
    89      89       --         0.173 au  C             1.00      2 P:z             5
                        (       4.709 eV)
    90      90       --         2.026 au  C             1.00      3 P:z             5
                        (      55.143 eV)
    91      91       --         1.232 au  C             1.00      1 D:z2            5
                        (      33.528 eV)
    92      92       --         1.232 au  C             1.00      1 D:x2-y2         5
                        (      33.528 eV)
    93      93       --         1.232 au  C             1.00      1 D:xy            5
                        (      33.528 eV)
    94      94       --         1.232 au  C             1.00      1 D:xz            5
                        (      33.528 eV)
    95      95       --         1.232 au  C             1.00      1 D:yz            5
                        (      33.528 eV)
    96      96      2.000     -10.058 au  C             1.00      1 S               6
                        (    -273.681 eV)
    97      97      2.000      -0.510 au  C             1.00      2 S               6
                        (     -13.876 eV)
    98      98       --         0.371 au  C             1.00      3 S               6
                        (      10.091 eV)
    99      99       --         5.428 au  C             1.00      4 S               6
                        (     147.707 eV)
   100     100       --        50.181 au  C             1.00      5 S               6
                        (    1365.486 eV)
   101     101      0.667      -0.199 au  C             1.00      1 P:x             6
                        (      -5.403 eV)
   102     102       --         0.173 au  C             1.00      2 P:x             6
                        (       4.709 eV)
   103     103       --         2.026 au  C             1.00      3 P:x             6
                        (      55.143 eV)
   104     104      0.667      -0.199 au  C             1.00      1 P:y             6
                        (      -5.403 eV)
   105     105       --         0.173 au  C             1.00      2 P:y             6
                        (       4.709 eV)
   106     106       --         2.026 au  C             1.00      3 P:y             6
                        (      55.143 eV)
   107     107      0.667      -0.199 au  C             1.00      1 P:z             6
                        (      -5.403 eV)
   108     108       --         0.173 au  C             1.00      2 P:z             6
                        (       4.709 eV)
   109     109       --         2.026 au  C             1.00      3 P:z             6
                        (      55.143 eV)
   110     110       --         1.232 au  C             1.00      1 D:z2            6
                        (      33.528 eV)
   111     111       --         1.232 au  C             1.00      1 D:x2-y2         6
                        (      33.528 eV)
   112     112       --         1.232 au  C             1.00      1 D:xy            6
                        (      33.528 eV)
   113     113       --         1.232 au  C             1.00      1 D:xz            6
                        (      33.528 eV)
   114     114       --         1.232 au  C             1.00      1 D:yz            6
                        (      33.528 eV)
   115     115      1.000      -0.244 au  H             1.00      1 S               7
                        (      -6.626 eV)
   116     116       --         0.093 au  H             1.00      2 S               7
                        (       2.536 eV)
   117     117       --         1.515 au  H             1.00      3 S               7
                        (      41.236 eV)
   118     118       --         0.400 au  H             1.00      1 P:x             7
                        (      10.872 eV)
   119     119       --         0.400 au  H             1.00      1 P:y             7
                        (      10.872 eV)
   120     120       --         0.400 au  H             1.00      1 P:z             7
                        (      10.872 eV)
   121     121      1.000      -0.244 au  H             1.00      1 S               8
                        (      -6.626 eV)
   122     122       --         0.093 au  H             1.00      2 S               8
                        (       2.536 eV)
   123     123       --         1.515 au  H             1.00      3 S               8
                        (      41.236 eV)
   124     124       --         0.400 au  H             1.00      1 P:x             8
                        (      10.872 eV)
   125     125       --         0.400 au  H             1.00      1 P:y             8
                        (      10.872 eV)
   126     126       --         0.400 au  H             1.00      1 P:z             8
                        (      10.872 eV)
   127     127      1.000      -0.244 au  H             1.00      1 S               9
                        (      -6.626 eV)
   128     128       --         0.093 au  H             1.00      2 S               9
                        (       2.536 eV)
   129     129       --         1.515 au  H             1.00      3 S               9
                        (      41.236 eV)
   130     130       --         0.400 au  H             1.00      1 P:x             9
                        (      10.872 eV)
   131     131       --         0.400 au  H             1.00      1 P:y             9
                        (      10.872 eV)
   132     132       --         0.400 au  H             1.00      1 P:z             9
                        (      10.872 eV)
   133     133      1.000      -0.244 au  H             1.00      1 S              10
                        (      -6.626 eV)
   134     134       --         0.093 au  H             1.00      2 S              10
                        (       2.536 eV)
   135     135       --         1.515 au  H             1.00      3 S              10
                        (      41.236 eV)
   136     136       --         0.400 au  H             1.00      1 P:x            10
                        (      10.872 eV)
   137     137       --         0.400 au  H             1.00      1 P:y            10
                        (      10.872 eV)
   138     138       --         0.400 au  H             1.00      1 P:z            10
                        (      10.872 eV)
   139     139      1.000      -0.244 au  H             1.00      1 S              11
                        (      -6.626 eV)
   140     140       --         0.093 au  H             1.00      2 S              11
                        (       2.536 eV)
   141     141       --         1.515 au  H             1.00      3 S              11
                        (      41.236 eV)
   142     142       --         0.400 au  H             1.00      1 P:x            11
                        (      10.872 eV)
   143     143       --         0.400 au  H             1.00      1 P:y            11
                        (      10.872 eV)
   144     144       --         0.400 au  H             1.00      1 P:z            11
                        (      10.872 eV)
   145     145      1.000      -0.244 au  H             1.00      1 S              12
                        (      -6.626 eV)
   146     146       --         0.093 au  H             1.00      2 S              12
                        (       2.536 eV)
   147     147       --         1.515 au  H             1.00      3 S              12
                        (      41.236 eV)
   148     148       --         0.400 au  H             1.00      1 P:x            12
                        (      10.872 eV)
   149     149       --         0.400 au  H             1.00      1 P:y            12
                        (      10.872 eV)
   150     150       --         0.400 au  H             1.00      1 P:z            12
                        (      10.872 eV)



 ================================
 (Slater-type)  F U N C T I O N S  ***  (Basis and Fit)  ***
 ================================
  

 Atom Type    1  (C)
 ==============

 Valence Basis Sets:   9
 -----------------------
   1 S    7.680000
   1 S    5.000000
   2 S    1.280000
   2 S    2.100000
   2 S    4.600000
   2 P    0.820000
   2 P    1.480000
   2 P    2.940000
   3 D    2.200000

 Atom Type    2  (H)
 ==============

 Valence Basis Sets:   4
 -----------------------
   1 S    0.690000
   1 S    0.920000
   1 S    1.580000
   2 P    1.250000


 BAS: List of all Elementary Cartesian Basis Functions
 =====================================================

 The numbering in the list below (to the right of the function characteristics) is referred
 to in print-outs of MO eigenvectors and Mulliken populations in the BAS representation
 (as contrasted to the SFO representation).

 Notes:
 1. The functions are characterized by a polynomial prefactor (powers of x,y,z and r) and
    an exponential decay factor alpha.
 2. Since the basis sets are specific for an atom TYPE, the individual functions occur on
    all atoms of that type.
 3. The word 'Core' in the left margin signals that it is a Core Function (CF) : not a
    degree of freedom in the valence set, but only used to ensure orthogonalization of
    the other valence basis functions on the frozen Core Orbitals.


 (power of) X  Y  Z  R     Alpha  on Atom
            ==========     =====     ==========

 C                                    1    2    3    4    5    6
                                  ---------------------------------------------------------------------------
            0  0  0  0     7.680      1   21   41   61   81  101
            0  0  0  0     5.000      2   22   42   62   82  102
            0  0  0  1     1.280      3   23   43   63   83  103
            0  0  0  1     2.100      4   24   44   64   84  104
            0  0  0  1     4.600      5   25   45   65   85  105
            1  0  0  0     0.820      6   26   46   66   86  106
            0  1  0  0     0.820      7   27   47   67   87  107
            0  0  1  0     0.820      8   28   48   68   88  108
            1  0  0  0     1.480      9   29   49   69   89  109
            0  1  0  0     1.480     10   30   50   70   90  110
            0  0  1  0     1.480     11   31   51   71   91  111
            1  0  0  0     2.940     12   32   52   72   92  112
            0  1  0  0     2.940     13   33   53   73   93  113
            0  0  1  0     2.940     14   34   54   74   94  114
            2  0  0  0     2.200     15   35   55   75   95  115
            1  1  0  0     2.200     16   36   56   76   96  116
            1  0  1  0     2.200     17   37   57   77   97  117
            0  2  0  0     2.200     18   38   58   78   98  118
            0  1  1  0     2.200     19   39   59   79   99  119
            0  0  2  0     2.200     20   40   60   80  100  120

 H                                    7    8    9   10   11   12
                                  ---------------------------------------------------------------------------
            0  0  0  0     0.690    121  127  133  139  145  151
            0  0  0  0     0.920    122  128  134  140  146  152
            0  0  0  0     1.580    123  129  135  141  147  153
            1  0  0  0     1.250    124  130  136  142  148  154
            0  1  0  0     1.250    125  131  137  143  149  155
            0  0  1  0     1.250    126  132  138  144  150  156

 Total number of charge fitting functions (nprimf)       804
 Total number of Cartesian basis functions (naos)        156
 Total number of Cartesian core functions  (ncos)          0

1
 ***************************************************************************************************



                                              ***********************
                                              *  T E C H N I C A L  *
                                              ***********************
  



 =============================================================
 P A R A L L E L I Z A T I O N  and  V E C T O R I Z A T I O N
 =============================================================
  
 Nr of parallel processes:                                6
 Maximum vector length in NumInt loops:                 128



 =====================
 S C F   U P D A T E S
 =====================
  
 Max. nr. of cycles:                               300
 Convergence criterion:                              0.0000010000
   secondary criterion:                              0.0010000000

 Mix parameter (when DIIS does not apply):           0.2000000000
 Mixed ADIIS+SDIIS will be used                  
    Max number of expansion vectors:                10
    Pure ADIIS when Max([F,P]) is above              0.1000000000
    Pure SDIIS when Max([F,P]) is below              0.0010000000
 Automatic ElectronSmearing (in case of problematic SCF convergence) disabled



 =================
 P R E C I S I O N  ***  (General: NumInt, NeglectFunctionTails, ...)  ***
 =================
  

 NumInt:           Target precision:                 4.0000000000
 -------           Initial precision:                4.0000000000
                   Min. precision (optimization):    4.0000000000

 Neglect Functions:          Basis functions:        0.1000000000E-05
 ------------------          Fit functions:          0.1000000000E-05



 ===========================
 L I N E A R   S C A L I N G
 ===========================
  

 Cut-off radii density fit:                        0.1000000000E-07
 Overlap cut-off criterion AO matrix elements:     0.1000000000E-05
 Cut-offs for Coulomb potential and fitted density:0.1000000000E-07
 Cut-off criterion for Coulomb multipole terms:    0.1000000000E-07
 Progressive Convergence parameter:                 0.000000000    
1
 ***************************************************************************************************



                                            ***************************
                                            *  C O M P U T A T I O N  *
                                            ***************************
  

 Number of elements of the density matrix on this node (used, total):      1962     12246



 ===========================================
 Numerical Integration : Fuzzy Cells (Becke)
 ===========================================
  
 Becke grid quality: NORMAL         
  
 Lebedev angular grid order:             min:  11 max:  23
 Nr. of radial points:                   min:  46 max:  52

 Total nr. of points:      75660
 Nr. of blocks:              592
 Block length:               128
 Nr. of dummy points:        116


 Test of Precision of the Numerical Integration Grid
 ===================================================

 Integral of the Total Core Density:                   0.00000000000000



 ========================
 Density Fitting (zlmFit)
 ========================
  
 ZlmFit Fit Quality: NORMAL         
  
 Max L-expansion:                        min:   5 max:   6
 Nr. of radial interpolation points:     min:  36 max:  48



 =====
 S C F  ***  ScaSCF  ***
 =====
  
 Initial density matrix is calculated as sum of fragments

 CYCLE    1
 SCF Error: norm([F,P])=      5.990934517638, max([F,P])=      0.980256362715
 orbitals (Q,E):
 ---------------
 A :12...31          ( 2.00    -0.6583)  ( 2.00    -0.6250)  ( 2.00    -0.5884)  ( 2.00    -0.5691)
                     ( 2.00    -0.5689)  ( 2.00    -0.5031)  ( 2.00    -0.5016)  ( 2.00    -0.5015)
                     ( 2.00    -0.4055)  ( 2.00    -0.4055)  ( 0.00    -0.2151)  ( 0.00    -0.2151)
                     ( 0.00    -0.0768)  ( 0.00    -0.0731)  ( 0.00    -0.0375)  ( 0.00    -0.0375)
                     ( 0.00    -0.0111)  ( 0.00    -0.0111)  ( 0.00     0.0270)  ( 0.00     0.0510)

 CYCLE    2
   MIX coefficients:  0.8000  0.2000
 SCF Error: norm([F,P])=      0.892310794743, max([F,P])=      0.187110005634
 orbitals (Q,E):
 ---------------
 A :12...22          ( 2.00    -0.5946)  ( 2.00    -0.5421)  ( 2.00    -0.5328)  ( 2.00    -0.5022)
                     ( 2.00    -0.5020)  ( 2.00    -0.4366)  ( 2.00    -0.4344)  ( 2.00    -0.4343)
                     ( 2.00    -0.3389)  ( 2.00    -0.3388)  ( 0.00    -0.1501)

 CYCLE    3
  SDIIS (wt  0.000): -1.2670  2.2670
 A-DIIS (wt  1.000):  0.0000  1.0000
  DIIS coefficients:  0.0000  1.0000
 SCF Error: norm([F,P])=      0.521452377587, max([F,P])=      0.102608970872
 orbitals (Q,E):
 ---------------
 A :12...22          ( 2.00    -0.3985)  ( 2.00    -0.3564)  ( 2.00    -0.2966)  ( 2.00    -0.2964)
                     ( 2.00    -0.2951)  ( 2.00    -0.2475)  ( 2.00    -0.2227)  ( 2.00    -0.2227)
                     ( 2.00    -0.1499)  ( 2.00    -0.1498)  ( 0.00     0.0285)

 CYCLE    4
  SDIIS (wt  0.000):  0.1838  0.3520  0.4642
 A-DIIS (wt  1.000): -0.0000  0.6402  0.3598
  DIIS coefficients: -0.0000  0.6402  0.3598
 SCF Error: norm([F,P])=      0.743227730256, max([F,P])=      0.172657333145
 orbitals (Q,E):
 ---------------
 A :12...22          ( 2.00    -0.4673)  ( 2.00    -0.4038)  ( 2.00    -0.3933)  ( 2.00    -0.3709)
                     ( 2.00    -0.3707)  ( 2.00    -0.3293)  ( 2.00    -0.2970)  ( 2.00    -0.2969)
                     ( 2.00    -0.2286)  ( 2.00    -0.2286)  ( 0.00    -0.0405)

 CYCLE    5
  SDIIS (wt  0.902): -0.0172  0.2159  0.0733  0.7280
 A-DIIS (wt  0.098):  0.0000  0.0000  0.0000  1.0000
  DIIS coefficients: -0.0155  0.1947  0.0661  0.7547
 SCF Error: norm([F,P])=      0.076216408477, max([F,P])=      0.010728494538
 orbitals (Q,E):
 ---------------
 A :12...22          ( 2.00    -0.4793)  ( 2.00    -0.4187)  ( 2.00    -0.4084)  ( 2.00    -0.3828)
                     ( 2.00    -0.3825)  ( 2.00    -0.3380)  ( 2.00    -0.3110)  ( 2.00    -0.3109)
                     ( 2.00    -0.2384)  ( 2.00    -0.2383)  ( 0.00    -0.0510)

 CYCLE    6
  SDIIS (wt  0.993): -0.0029  0.0315  0.0082  0.1926  0.7705
 A-DIIS (wt  0.007):  0.0000  0.0000  0.0000  0.0000  1.0000
  DIIS coefficients: -0.0028  0.0313  0.0082  0.1913  0.7721
 SCF Error: norm([F,P])=      0.010708179335, max([F,P])=      0.001695006943
 orbitals (Q,E):
 ---------------
 A :12...22          ( 2.00    -0.4790)  ( 2.00    -0.4180)  ( 2.00    -0.4073)  ( 2.00    -0.3826)
                     ( 2.00    -0.3824)  ( 2.00    -0.3374)  ( 2.00    -0.3104)  ( 2.00    -0.3103)
                     ( 2.00    -0.2377)  ( 2.00    -0.2377)  ( 0.00    -0.0502)

 CYCLE    7
  SDIIS (wt  1.000):  0.0009  0.0020  0.0002  0.0236  0.1239  0.8494
  DIIS coefficients:  0.0009  0.0020  0.0002  0.0236  0.1239  0.8494
 SCF Error: norm([F,P])=      0.001137189863, max([F,P])=      0.000275585068
 orbitals (Q,E):
 ---------------
 A :12...22          ( 2.00    -0.4791)  ( 2.00    -0.4181)  ( 2.00    -0.4075)  ( 2.00    -0.3827)
                     ( 2.00    -0.3825)  ( 2.00    -0.3376)  ( 2.00    -0.3105)  ( 2.00    -0.3104)
                     ( 2.00    -0.2379)  ( 2.00    -0.2378)  ( 0.00    -0.0504)

 CYCLE    8
  SDIIS (wt  1.000):  0.0005  0.0005  0.0000  0.0095  0.0532  0.4290  0.5073
  DIIS coefficients:  0.0005  0.0005  0.0000  0.0095  0.0532  0.4290  0.5073
 SCF Error: norm([F,P])=      0.000338459748, max([F,P])=      0.000085051548
 orbitals (Q,E):
 ---------------
 A :12...22          ( 2.00    -0.4791)  ( 2.00    -0.4181)  ( 2.00    -0.4075)  ( 2.00    -0.3827)
                     ( 2.00    -0.3825)  ( 2.00    -0.3376)  ( 2.00    -0.3105)  ( 2.00    -0.3105)
                     ( 2.00    -0.2379)  ( 2.00    -0.2378)  ( 0.00    -0.0504)

 CYCLE    9
  SDIIS (wt  1.000):  0.0001 -0.0002 -0.0000 -0.0004 -0.0007  0.0151  0.3211  0.6650
  DIIS coefficients:  0.0001 -0.0002 -0.0000 -0.0004 -0.0007  0.0151  0.3211  0.6650
 SCF Error: norm([F,P])=      0.000157521863, max([F,P])=      0.000042141078
 orbitals (Q,E):
 ---------------
 A :12...22          ( 2.00    -0.4791)  ( 2.00    -0.4181)  ( 2.00    -0.4075)  ( 2.00    -0.3827)
                     ( 2.00    -0.3825)  ( 2.00    -0.3376)  ( 2.00    -0.3105)  ( 2.00    -0.3105)
                     ( 2.00    -0.2379)  ( 2.00    -0.2378)  ( 0.00    -0.0504)

 CYCLE   10
  SDIIS (wt  1.000):  0.0001 -0.0001 -0.0000 -0.0003 -0.0006  0.0089  0.2082  0.4339  0.3500
  DIIS coefficients:  0.0001 -0.0001 -0.0000 -0.0003 -0.0006  0.0089  0.2082  0.4339  0.3500
 SCF Error: norm([F,P])=      0.000017725734, max([F,P])=      0.000004837082
 orbitals (Q,E):
 ---------------
 A :12...22          ( 2.00    -0.4791)  ( 2.00    -0.4181)  ( 2.00    -0.4075)  ( 2.00    -0.3827)
                     ( 2.00    -0.3825)  ( 2.00    -0.3376)  ( 2.00    -0.3105)  ( 2.00    -0.3105)
                     ( 2.00    -0.2379)  ( 2.00    -0.2378)  ( 0.00    -0.0504)

 CYCLE   11
  SDIIS (wt  1.000):  0.0000 -0.0000 -0.0000  0.0000 -0.0000 -0.0000  0.0009  0.0030  0.2207  0.7755
  DIIS coefficients:  0.0000 -0.0000 -0.0000  0.0000 -0.0000 -0.0000  0.0009  0.0030  0.2207  0.7755
 SCF Error: norm([F,P])=      0.000005126257, max([F,P])=      0.000001273556
 orbitals (Q,E):
 ---------------
 A :12...22          ( 2.00    -0.4791)  ( 2.00    -0.4181)  ( 2.00    -0.4075)  ( 2.00    -0.3827)
                     ( 2.00    -0.3825)  ( 2.00    -0.3376)  ( 2.00    -0.3105)  ( 2.00    -0.3105)
                     ( 2.00    -0.2379)  ( 2.00    -0.2378)  ( 0.00    -0.0504)

 CYCLE   12
  SDIIS (wt  1.000): -0.0000 -0.0000  0.0000 -0.0000 -0.0002 -0.0036 -0.0067  0.1428  0.5235  0.3443
  DIIS coefficients: -0.0000 -0.0000  0.0000 -0.0000 -0.0002 -0.0036 -0.0067  0.1428  0.5235  0.3443
 SCF Error: norm([F,P])=      0.000001216861, max([F,P])=      0.000000262813
 orbitals (Q,E):
 ---------------
 A :12...22          ( 2.00    -0.4791)  ( 2.00    -0.4181)  ( 2.00    -0.4075)  ( 2.00    -0.3827)
                     ( 2.00    -0.3825)  ( 2.00    -0.3376)  ( 2.00    -0.3105)  ( 2.00    -0.3105)
                     ( 2.00    -0.2379)  ( 2.00    -0.2378)  ( 0.00    -0.0504)

 SCF CONVERGED

 CYCLE   13
1
 ***************************************************************************************************



                                                *******************
                                                *  R E S U L T S  *
                                                *******************
  
 *** Using FIT density in Focky
  SDIIS (wt  1.000): -0.0000  0.0000 -0.0000 -0.0000 -0.0001 -0.0002  0.0102  0.0373  0.0425  0.9104
  DIIS coefficients: -0.0000  0.0000 -0.0000 -0.0000 -0.0001 -0.0002  0.0102  0.0373  0.0425  0.9104
 SCF Error: norm([F,P])=      0.000000031501, max([F,P])=      0.000000006336

 Orbital Energies, per Irrep and Spin:
 ======================================
                        Occup              E (au)              E (eV)       Diff (eV) with prev. cycle
                        -----      --------------------        ------       --------------------------
 A
              12        2.000     -0.47913493232742E+00       -13.038              -4.15E-08
              13        2.000     -0.41811590784984E+00       -11.378              -3.96E-08
              14        2.000     -0.40754747305258E+00       -11.090              -1.76E-08
              15        2.000     -0.38268584192953E+00       -10.413              -5.16E-08
              16        2.000     -0.38247910238079E+00       -10.408              -2.04E-08
              17        2.000     -0.33757739093322E+00        -9.186              -3.39E-08
              18        2.000     -0.31054809577858E+00        -8.450              -2.66E-08
              19        2.000     -0.31045960728156E+00        -8.448              -3.05E-08
              20        2.000     -0.23787364435150E+00        -6.473              -4.64E-08
              21        2.000     -0.23782649918099E+00        -6.472              -1.33E-08
              22        0.000     -0.50392749093396E-01        -1.371
              23        0.000     -0.50327176304063E-01        -1.369
              24        0.000      0.20369103231277E-02         0.055
              25        0.000      0.27840241326645E-01         0.758
              26        0.000      0.27864024497687E-01         0.758
              27        0.000      0.60712831277402E-01         1.652
              28        0.000      0.60764953506586E-01         1.653
              29        0.000      0.90656677725265E-01         2.467
              30        0.000      0.96121624864193E-01         2.616
              31        0.000      0.14212349562347E+00         3.867
  
 HOMO :       21 A                -0.23782649918099E+00
 LUMO :       22 A                -0.50392749093396E-01
  


 All Electron Calculation, thus no Orbital Energies of the Core Orbitals are calculated


 Fit test: (difference of exact and fit density, squared integrated, result summed over spins)
         Sum-of-Fragments:                             0.00000000048365
         Orthogonalized Fragments:                     0.00013299040377
         SCF:                                          0.00048707027801



 ==========================
 Electron Density at Nuclei
 ==========================
  
 The electron density is calculated at points on a small sphere around the center of a nucleus.
 The printed electron density is the average electron density on these points.
 The radius of the sphere is the printed approximate finite nuclear radius.

         Atom        Nuclear Radius (Angstrom)             Electron Density (a.u.)
         ----        -------------------------             -----------------------
     1)   C                 0.0000320678                              126.51444
     2)   C                 0.0000320678                              126.51569
     3)   C                 0.0000320678                              126.51463
     4)   C                 0.0000320678                              126.51442
     5)   C                 0.0000320678                              126.51570
     6)   C                 0.0000320678                              126.51462
     7)   H                 0.0000181514                                0.49873
     8)   H                 0.0000181514                                0.49868
     9)   H                 0.0000181514                                0.49870
    10)   H                 0.0000181514                                0.49872
    11)   H                 0.0000181514                                0.49869
    12)   H                 0.0000181514                                0.49865



 =======================================
 M U L L I K E N   P O P U L A T I O N S
 =======================================
  
 The survey below gives for each atom:
 a) the total charge (Z minus electrons)
 b) the net spin polarization (nr of electrons spin-A minus spin-B)
 c) for each spin the atomic electron valence density (integrated) per L-value.

 Atom              Charge    Spin density          S         P         D         F
 ----              ------    ------------       ------    ------    ------    ------
 1 C               0.1754                       3.0649    2.6987    0.0610    0.0000
 2 C               0.1757                       3.0649    2.6984    0.0610    0.0000
 3 C               0.1756                       3.0650    2.6985    0.0610    0.0000
 4 C               0.1754                       3.0649    2.6988    0.0610    0.0000
 5 C               0.1757                       3.0650    2.6984    0.0610    0.0000
 6 C               0.1755                       3.0650    2.6986    0.0610    0.0000
 7 H              -0.1759                       1.1045    0.0715    0.0000    0.0000
 8 H              -0.1757                       1.1042    0.0714    0.0000    0.0000
 9 H              -0.1751                       1.1037    0.0714    0.0000    0.0000
 10 H             -0.1759                       1.1045    0.0714    0.0000    0.0000
 11 H             -0.1757                       1.1042    0.0714    0.0000    0.0000
 12 H             -0.1750                       1.1037    0.0714    0.0000    0.0000

 Populations of individual BAS functions
 ----------------------------------------
 1 C            0.4869  1.5144  0.2298  0.8872 -0.0535 -0.1033  0.1475 -0.2378  0.8055  0.6780
                0.8823  0.2001  0.1366  0.1899  0.0268  0.0122  0.0174 -0.0175  0.0040  0.0181
 2 C            0.4870  1.5144  0.2297  0.8874 -0.0535 -0.2025  0.1473 -0.1395  0.8621  0.6781
                0.8264  0.1926  0.1366  0.1973  0.0181  0.0062  0.0220 -0.0176  0.0100  0.0222
 3 C            0.4870  1.5144  0.2298  0.8873 -0.0535 -0.2072  0.1474 -0.1345  0.8647  0.6780
                0.8235  0.1922  0.1366  0.1977  0.0180  0.0059  0.0216 -0.0175  0.0103  0.0227
 4 C            0.4869  1.5144  0.2298  0.8872 -0.0535 -0.1033  0.1474 -0.2378  0.8054  0.6780
                0.8823  0.2001  0.1366  0.1899  0.0268  0.0122  0.0174 -0.0175  0.0040  0.0181
 5 C            0.4870  1.5144  0.2297  0.8874 -0.0535 -0.2025  0.1473 -0.1396  0.8621  0.6781
                0.8264  0.1926  0.1366  0.1973  0.0181  0.0062  0.0220 -0.0175  0.0100  0.0222
 6 C            0.4870  1.5144  0.2298  0.8873 -0.0535 -0.2072  0.1474 -0.1344  0.8647  0.6781
                0.8235  0.1922  0.1366  0.1977  0.0180  0.0059  0.0216 -0.0175  0.0103  0.0227
 7 H            0.2097  0.5759  0.3188  0.0288  0.0217  0.0209
 8 H            0.2093  0.5761  0.3188  0.0295  0.0217  0.0202
 9 H            0.2086  0.5761  0.3190  0.0162  0.0217  0.0334
 10 H           0.2098  0.5759  0.3188  0.0288  0.0217  0.0209
 11 H           0.2093  0.5761  0.3188  0.0295  0.0217  0.0202
 12 H           0.2086  0.5762  0.3189  0.0162  0.0217  0.0334

 Gross Charges per Atom (Z minus electrons)
 ==========================================
             0.1754    0.1757    0.1756    0.1754    0.1757    0.1755   -0.1759   -0.1757   -0.1751   -0.1759
            -0.1757   -0.1750
 Net Total: -0.00000000


 Atom-Atom Population Matrix (off-diagonal elements not doubled)
 ===============================================================

     1 :     4.5229
     2 :     0.5417    4.5223
     3 :    -0.0106    0.5417    4.5224
     4 :    -0.0557   -0.0106    0.5418    4.5228
     5 :    -0.0106   -0.0555   -0.0107    0.5417    4.5223
     6 :     0.5418   -0.0107   -0.0555   -0.0106    0.5417    4.5224
     7 :    -0.0536    0.3939   -0.0535    0.0022    0.0041    0.0021    0.9822
     8 :     0.0022   -0.0535    0.3939   -0.0537    0.0022    0.0041   -0.0476    0.9818
     9 :     0.0041    0.0021   -0.0534    0.3939   -0.0534    0.0021   -0.0038   -0.0476    0.9808
    10 :     0.0022    0.0041    0.0021   -0.0536    0.3939   -0.0535    0.0015   -0.0038   -0.0476    0.9822
    11 :    -0.0537    0.0021    0.0041    0.0022   -0.0535    0.3939   -0.0038    0.0015   -0.0038   -0.0476
             0.9818
    12 :     0.3939   -0.0534    0.0021    0.0041    0.0021   -0.0534   -0.0476   -0.0038    0.0016   -0.0038
            -0.0476    0.9808



 =================================================
 H I R S H F E L D   C H A R G E   A N A L Y S I S
 =================================================
  
 For each fragment: the (numerical) integral of rho(scf) * rho(fragment)/rho(sum-of-fragments)
 (nuclear charges are included, electrons are counted negative)

 The fragments and their ordering are defined in the early G E O M E T R Y output section.
 If you use single-atom fragments, this usually implies that all atoms of the same
 chemical type are grouped together. This may not be the order in which you listed them
 in the input file!

    1  C                        -0.0463
    2  C                        -0.0463
    3  C                        -0.0463
    4  C                        -0.0463
    5  C                        -0.0463
    6  C                        -0.0463
    7  H                         0.0463
    8  H                         0.0463
    9  H                         0.0463
   10  H                         0.0463
   11  H                         0.0463
   12  H                         0.0462

 Sum of these charges (accuracy NumInt/Tails) =          -0.00005969



 =============================
 V O R O N O I   C H A R G E S
 =============================
  
 For each atom: the (numerical) integral of the total electronic charge density in its Voronoi cell,
 i.e. the region of space that is closer to that atom than to any other atom.
 (cf. Wigner-Seitz cells in crystals)

 Within the Voronoi cell the subintegrals over the atomic sphere and the remaining part are evaluated
 separately to give the numbers of electrons (negative charge) in these regions.
 The net total charge in the cell (including the nuclear charge) is also given.

 Values are provided for
    a) the Initial (sum-of-fragments) density
    b) the Orthogonalized-Fragments density
    c) the SCF density
    d) the Voronoi Deformation Density (VDD): the difference SCF-Initial for the complete atomic cell


  Atom                Initial                    OrthFrag                   SCF
             Sphere RestCell NetTotal   Sphere RestCell NetTotal   Sphere RestCell NetTotal      VDD
 -----       ------------------------   ------------------------   ------------------------    -----
    1 C      -2.269   -3.185    0.546   -2.452   -3.137    0.411   -2.303   -3.207    0.490   -0.056
    2 C      -2.269   -3.191    0.541   -2.452   -3.137    0.410   -2.303   -3.208    0.489   -0.051
    3 C      -2.269   -3.190    0.542   -2.452   -3.142    0.406   -2.303   -3.212    0.485   -0.056
    4 C      -2.269   -3.185    0.546   -2.452   -3.137    0.411   -2.303   -3.207    0.490   -0.056
    5 C      -2.269   -3.191    0.541   -2.452   -3.137    0.410   -2.303   -3.208    0.489   -0.051
    6 C      -2.269   -3.190    0.542   -2.452   -3.142    0.406   -2.303   -3.212    0.485   -0.056
    7 H      -0.075   -1.473   -0.548   -0.096   -1.318   -0.413   -0.109   -1.384   -0.493    0.055
    8 H      -0.075   -1.464   -0.539   -0.096   -1.309   -0.405   -0.109   -1.375   -0.484    0.055
    9 H      -0.075   -1.467   -0.541   -0.096   -1.313   -0.409   -0.109   -1.379   -0.488    0.053
   10 H      -0.075   -1.473   -0.548   -0.096   -1.318   -0.413   -0.109   -1.384   -0.493    0.055
   11 H      -0.075   -1.464   -0.539   -0.096   -1.309   -0.405   -0.109   -1.375   -0.484    0.055
   12 H      -0.075   -1.467   -0.541   -0.096   -1.313   -0.409   -0.109   -1.379   -0.488    0.053
 ---------------------------------------------------------------------------------------------------
 Total NetCharge:              -0.000                     -0.000                     -0.000    0.000
 (accuracy NumInt/Tails)

 Remark: the 'NetTotal' Voronoi charges often do not match the Mulliken and/or Hirshfeld charges very
 well. This is caused by the fact that chemically different atoms are not treated in accordance with
 their relative sizes. (Voronoi cells are defined by boundary planes halfway between the atoms.)
 However, the CHANGES in charge, comparing 'Initial' to 'SCF' for instance, do give a fair indication
 of the flow of charge caused by the relaxation from sum-of-fragments to self-consistency.

 Warning: the absolute accuracy of the VDD charges obtained using the Fuzzy Cells (Becke) integration
 scheme is much poorer than the one obtained with an 'equivalent' Voronoi integration grid. 



 =================================================================
 M U L T I P O L E   D E R I V E D   C H A R G E   A N A L Y S I S
 =================================================================

 This charge analysis uses the atomic multipoles (obtained from the fitted density) up to some level X,
 and reconstructs these multipoles exactly (up to level X) by distributing charges over all atoms.
 This is achieved by using Lagrange multipliers and a weight function to keep the multipoles local.

 Dummy atoms can be included (by setting INCDUM in MDC-block to 1) to obtain a fractional charge.
 This is generally useful and necessary only for small symmetrical molecules, when there are not
 enough degrees of freedom to reconstruct the multipoles.

 Since the atomic multipoles are reconstructed up to level X,
 the molecular multipoles are represented also up to level X.
 The recommended level is to reconstruct up to quadrupole : -> MDC-q charges.

 See: M. Swart, P.Th. van Duijnen, J.G. Snijders, J.Comput.Chem., (2001), p. 79-88.

 ------------------------------------------------------------- 
 Atomic electronic multipole moments from SCF equations (a.u.)
 ------------------------------------------------------------- 

   atom        charge        dip-x     dip-y     dip-z      quad-xx   quad-xy   quad-xz   quad-yy   quad-yz   quad-zz
 --------------------------------------------------------------------------------------------------------------------
    1 C      0.060868     0.000979  0.000000 -0.047127     0.468934 -0.000000 -0.000778 -0.996614 -0.000000  0.527681
    2 C      0.060452    -0.042056  0.000000 -0.025625     0.508815 -0.000000  0.014878 -0.993843  0.000000  0.485028
    3 C      0.060593    -0.042459  0.000000  0.023424     0.512330 -0.000000 -0.014994 -0.994884  0.000000  0.482554
    4 C      0.060875    -0.000986  0.000000  0.047166     0.468864 -0.000000 -0.000784 -0.996638  0.000000  0.527774
    5 C      0.060452     0.042051  0.000000  0.025621     0.508782 -0.000000  0.014854 -0.993836  0.000000  0.485054
    6 C      0.060592     0.042467  0.000000 -0.023428     0.512388 -0.000000 -0.015017 -0.994897 -0.000000  0.482509
    7 H     -0.060619    -0.019462  0.000000 -0.011856     0.160318  0.000000  0.080506 -0.195372 -0.000000  0.035054
    8 H     -0.060620    -0.019832  0.000000  0.010960     0.170662 -0.000000 -0.076614 -0.195677  0.000000  0.025015
    9 H     -0.060674    -0.000491  0.000000  0.022614    -0.038576  0.000000 -0.003871 -0.194892 -0.000000  0.233468
   10 H     -0.060633     0.019456  0.000000  0.011853     0.160315 -0.000000  0.080501 -0.195374  0.000000  0.035060
   11 H     -0.060606     0.019840  0.000000 -0.010960     0.170671  0.000000 -0.076618 -0.195676 -0.000000  0.025005
   12 H     -0.060681     0.000488  0.000000 -0.022620    -0.038564  0.000000 -0.003868 -0.194887  0.000000  0.233451

 --------------------------------------- 
 Multipole derived atomic charges (a.u.)
 --------------------------------------- 

 The MDC-m charges are just the Monopole terms in the multipole expansion, while for the MDC-d charges
 also the Dipoles are reconstructed. The usually preferred charges are the MDC-q charges.
 These reconstruct the Monopoles, Dipoles and Quadrupoles (both atomic AND molecular).

        Atom    Level:     MDC-m        MDC-d        MDC-q
 ---------------------------------------------------------
     1     C            0.060868     0.034932    -0.125954
     2     C            0.060452     0.034494    -0.128059
     3     C            0.060593     0.034644    -0.127833
     4     C            0.060875     0.034936    -0.126014
     5     C            0.060452     0.034491    -0.128027
     6     C            0.060592     0.034643    -0.127870
     7     H           -0.060619    -0.034353     0.127715
     8     H           -0.060620    -0.034636     0.127448
     9     H           -0.060674    -0.035071     0.126740
    10     H           -0.060633    -0.034372     0.127686
    11     H           -0.060606    -0.034616     0.127480
    12     H           -0.060681    -0.035091     0.126689

 ------------------------------------------------ 
 Average absolute deviations in atomic multipoles
 ------------------------------------------------ 

 Stated here are the average differences between the atomic multipoles
 and the reconstructed atomic multipoles (from the distributed charges).
 If these values are not zero, this means there are not enough degrees of freedom,
 to be able to reconstruct the atomic multipoles. (This usually happens only
 for small and/or highly symmetric molecules). If this is the case, one could add
 dummy atoms as extra point charges (and setting INCDUM in MDC-block to 1).

 Level:                                 MDC-d        MDC-q
 ---------------------------------------------------------
 Charge   (a.u.)                       0.0000       0.0000
 Dipole   (Debye)                      0.0000       0.0000
 Quad.    (a.u.)                       0.2134       0.0000

 --------------------------------------- 
 Represented molecular multipole moments
 --------------------------------------- 

 Given here are the Molecular multipole moments from the atomic charges, and from the Fit Density.
 Note that the atomic charges represent the latter, NOT the ones from the Exact density.

            Q (a.u.)             Dipole moment (Debye)                                          Quadrupole moment (a.u.)
                                 x         y         z              xx        xy        xz        yy        yz        zz
------------------------------------------------------------------------------------------------------------------------
MDC-m        -0.0000        0.0000   -0.0000   -0.0000         -1.3798    0.0000   -0.0015    2.7587   -0.0001   -1.3789
MDC-d        -0.0000       -0.0000   -0.0000    0.0000         -0.7730   -0.0000    0.0070    1.5782    0.0002   -0.8052
MDC-q         0.0000       -0.0000    0.0000    0.0000          2.9009   -0.0000    0.0050   -5.7911    0.0002    2.8901
 
Fit.Dens.    -0.0000       -0.0000    0.0000    0.0000          2.9009   -0.0000    0.0041   -5.7911    0.0002    2.8901



 =============
 Dipole Moment  ***  (Debye)  ***
 =============
  
 Vector   :        -0.00000509     -0.00000010      0.00003415
 Magnitude:         0.00003453

 This molecular dipole moment is calculated with analytic integration



 =========================================
 Quadrupole Moment (Buckingham convention)  ***  (a.u.)  ***
 =========================================
  
      quad-xx        quad-xy        quad-xz        quad-yy        quad-yz        quad-zz
      2.91236250    -0.00002250     0.00221904    -5.81941888     0.00015226     2.90705637

 This molecular quadrupole moment is calculated with analytic integration
1



 ===========================
 B O N D I N G   E N E R G Y  ***  (decomposition)  ***
 ===========================
  
*** IMPORTANT NOTE ***

The bond energy is computed as an energy difference between molecule and
fragments. In particular when the fragments are single atoms, they are usually
computed as SPHERICALLY SYMMETRIC and SPIN-RESTRICTED. Obviously, this usually
does NOT represent the true atomic groundstate.

To obtain the 'real' bond energy, (atomic) correction terms must be applied
for the true (multiplet) fragment ground state. See ref: E.J.Baerends,
V.Branchadell, M.Sodupe, Chem.Phys.Lett.265 (1997) 481

General theoretical background on the bond energy decomposition scheme used
here (Morokuma-Ziegler) can be found in the review paper:
F.M. Bickelhaupt and E.J. Baerends,
"Kohn-Sham Density Functional Theory: Predicting and Understanding Chemistry"
In: Rev. Comput. Chem.; Lipkowitz, K. B. and Boyd, D. B., Eds.;
Wiley-VCH: New York, 2000, Vol. 15, 1-86.

Symbols used in the Bickelhaupt-Baerends (BB) paper are given below to make
the direct connection to that paper, where detailed explanations can be found
on the meaning of the various terms.


                                                   hartree              eV         kcal/mol           kJ/mol
                                      --------------------     -----------       ----------      -----------

Pauli Repulsion
  Kinetic (Delta T^0):                  26.874550457354658        731.2937         16864.04         70559.12
  Delta V^Pauli Coulomb:               -12.355098188015367       -336.1993         -7752.94        -32438.31
  Delta V^Pauli LDA-XC:                 -3.460906155682915        -94.1760         -2171.75         -9086.61
  Delta V^Pauli GGA-Exchange:            0.167033518519332          4.5452           104.82           438.55
  Delta V^Pauli GGA-Correlation:        -0.035685447622265         -0.9711           -22.39           -93.69
                                      --------------------     -----------       ----------      -----------
  Total Pauli Repulsion:                11.189894184553443        304.4925          7021.77         29379.06
 (Total Pauli Repulsion =
  Delta E^Pauli in BB paper)

Steric Interaction
  Pauli Repulsion (Delta E^Pauli):      11.189894184553443        304.4925          7021.77         29379.06
  Electrostatic Interaction:            -2.111120070837690        -57.4465         -1324.75         -5542.74
 (Electrostatic Interaction =
  Delta V_elstat in the BB paper)
                                      --------------------     -----------       ----------      -----------
  Total Steric Interaction:              9.078774113715754        247.0460          5697.02         23836.32
 (Total Steric Interaction =
  Delta E^0 in the BB paper)

Orbital Interactions
  A:                                   -11.823374358645719       -321.7304         -7419.28        -31042.26
                                      --------------------     -----------       ----------      -----------
  Total Orbital Interactions:          -11.823374358645719       -321.7304         -7419.28        -31042.26

Alternative Decomposition Orb.Int.
  Kinetic:                             -24.315065940865466       -661.6466        -15257.94        -63839.20
  Coulomb:                              11.614996457256263        316.0601          7288.52         30495.17
  XC:                                    0.876695124963483         23.8561           550.13          2301.76
                                      --------------------     -----------       ----------      -----------
  Total Orbital Interactions:          -11.823374358645721       -321.7304         -7419.28        -31042.26

  Residu (E=Steric+OrbInt+Res):         -0.000228395794553         -0.0062            -0.14            -0.60

Total Bonding Energy:                   -2.744828640724518        -74.6906         -1722.41         -7206.55


Summary of Bonding Energy (energy terms are taken from the energy decomposition above)
======================================================================================

  Electrostatic Energy:                 -2.111120070837690        -57.4465         -1324.75         -5542.74
  Kinetic Energy:                        2.559484516489192         69.6471          1606.10          6719.93
  Coulomb (Steric+OrbInt) Energy:       -0.740330126553657        -20.1454          -464.56         -1943.74
  XC Energy:                            -2.452862959822366        -66.7458         -1539.19         -6439.99
                                      --------------------     -----------       ----------      -----------
  Total Bonding Energy:                 -2.744828640724520        -74.6906         -1722.41         -7206.55


Correction terms (incorporated in energies above; only for test purposes):

1. Indication of fit-quality: 1st-order fit-correction used in the energy (hartree):   0.0009947921
2. Electrostatic (Fit correction):   0.0000000000



 =========================================
 F R A G M E N T   E N E R G Y   T E R M S  ***  (summed over all fragments)  ***
 =========================================
  

The energy terms below are (parts of) the Total Energy of the fragments from which the molecule
 is built.

Exchange and Correlation
  Exchange LDA:                        -27.460293242668545       -747.2326        -17231.60        -72096.99
  Exchange GGA:                         -3.707524597754351       -100.8869         -2326.51         -9734.10
  Correlation LDA:                      -2.479096325023571        -67.4596         -1555.66         -6508.87
  Correlation GGA:                       1.329268466378504         36.1712           834.13          3489.99
                                      --------------------     -----------       ----------      -----------
  Total XC:                            -32.317645699067967       -879.4079        -20279.63        -84849.97
1



 =======================================================
 S F O   P O P U L A T I O N S ,   M O   A N A L Y S I S
 =======================================================
  
 A Mulliken population analysis is performed on (input-)selected MOs. All populations refer to SFOs.
 BAS populations may have been printed directly after the SCF part.


                                       === A ===


 SFO contributions (%) per orbital
 (multiplication by the orbital occupation yields the SFO Gross Populations)

 Orb.:       12     13     14     15     16     17     18     19     20     21     22     23     24     25
 occup:     2.00   2.00   2.00   2.00   2.00   2.00   2.00   2.00   2.00   2.00   0.00   0.00   0.00   0.00
 CF+SFO     ----   ----   ----   ----   ----   ----   ----   ----   ----   ----   ----   ----   ----   ----
 ------
      2:    0.24   4.04   0.00   0.00   0.03  -0.00  -0.00  -0.06   0.00   0.00   0.00  -0.00  -0.24   0.00
      3:   -0.08   0.11   0.00  -0.00  -0.18   0.00  -0.00  -0.02  -0.00   0.00   0.00  -0.00  -2.69  -0.07
      6:    0.00   0.00  14.44   0.43  -0.00  -0.00   9.18   0.00   0.00  -0.00  -0.00  -0.00   0.00  -1.83
      7:    0.00   0.00   2.00   0.66   0.00   0.00   3.05  -0.00   0.00  -0.00  -0.00  -0.00  -0.00  -8.53
      9:   -0.00  -0.00   0.00   0.00  -0.00  17.22  -0.00  -0.00   1.05  30.71   0.99  33.51  -0.00   0.00
     10:   -0.00   0.00  -0.00   0.00   0.00  -0.98  -0.00  -0.00   0.00   0.11  -0.11  -3.74   0.00  -0.00
     12:   10.70   2.58   0.01   0.32  17.47   0.00   0.00   5.87  -0.00  -0.00  -0.00   0.00   0.73   0.11
     13:    0.23   0.28   0.00   0.01   1.25   0.00   0.00   1.47  -0.00  -0.00  -0.00   0.00  -0.51  -1.19
     17:    0.00   0.00  -0.00  -0.00  -0.00   0.00  -0.00  -0.00   0.59   0.02   1.10   0.04  -0.00  -0.00
     21:    0.24   4.02  -0.00   0.03   0.01   0.00  -0.05  -0.02  -0.00  -0.00   0.00   0.00  -0.24   0.02
     22:   -0.08   0.11   0.00  -0.16  -0.03   0.00  -0.02  -0.01  -0.00  -0.00   0.00   0.00  -2.69  -0.25
     25:    7.82   1.94   3.88  10.17   2.90   0.00   6.82  -0.08  -0.00  -0.00  -0.00   0.00   0.53  -0.69
     26:    0.17   0.21   0.54   0.25   0.85  -0.00   2.17  -0.27  -0.00  -0.00   0.00  -0.00  -0.37  -9.47
     28:    0.00   0.00   0.00  -0.00   0.00  17.22   0.00   0.00  28.22   3.54  20.40  14.09   0.00   0.00
     29:    0.00   0.00   0.00  -0.00  -0.00  -0.98   0.00  -0.00   0.10   0.01  -2.28  -1.57   0.00   0.00
     31:    2.88   0.70  10.59   5.13  -0.07  -0.00  -0.11   8.38   0.00   0.00   0.00  -0.00   0.19  -0.23
     32:    0.06   0.07   1.46   0.93  -0.11   0.00  -0.29   2.92  -0.00   0.00  -0.00   0.00  -0.14  -0.68
     40:    0.24   4.03   0.00   0.02   0.02   0.00  -0.05  -0.02   0.00   0.00  -0.00   0.00  -0.24   0.04
     41:   -0.08   0.11   0.00  -0.11  -0.07   0.00  -0.02  -0.01   0.00   0.00   0.00  -0.00  -2.69  -0.59
     44:    8.21   2.02   3.35   7.19   6.53   0.00   6.73  -0.10  -0.00  -0.00  -0.00   0.00   0.56   0.36
     45:    0.18   0.22   0.46  -0.10   1.22  -0.00   2.10  -0.27  -0.00   0.00  -0.00   0.00  -0.39  -9.83
     47:   -0.00  -0.00  -0.00   0.00  -0.00  17.22   0.00  -0.00  18.37  13.39  30.36   4.14  -0.00   0.00
     48:   -0.00   0.00  -0.00  -0.00   0.00  -0.98  -0.00   0.00   0.07   0.05  -3.39  -0.46  -0.00  -0.00
     50:    2.49   0.61  11.12   4.01   0.42   0.00  -0.07   8.48  -0.00   0.00   0.00  -0.00   0.17   0.31
     51:    0.05   0.06   1.54   1.13  -0.33  -0.00  -0.25   2.94  -0.00   0.00  -0.00  -0.00  -0.12  -1.21
     59:    0.24   4.04   0.00   0.00   0.03  -0.00  -0.00  -0.06   0.00  -0.00   0.00   0.00  -0.24   0.00
     60:   -0.08   0.11   0.00  -0.00  -0.18   0.00  -0.00  -0.02   0.00  -0.00   0.00   0.00  -2.69  -0.07
     63:    0.01   0.00  14.44   0.43  -0.00   0.00   9.18   0.00   0.00   0.00   0.00   0.00   0.00  -1.83
     64:    0.00   0.00   2.00   0.66   0.00   0.00   3.06  -0.00  -0.00   0.00   0.00   0.00  -0.00  -8.53
     66:    0.00   0.00   0.00  -0.00   0.00  17.22   0.00   0.00   1.05  30.71   0.99  33.51   0.00   0.00
     67:    0.00   0.00   0.00  -0.00   0.00  -0.98   0.00   0.00   0.00   0.11  -0.11  -3.74   0.00   0.00
     69:   10.70   2.58   0.01   0.32  17.48  -0.00   0.00   5.86  -0.00  -0.00   0.00  -0.00   0.73   0.11
     70:    0.23   0.28   0.00   0.01   1.25  -0.00   0.00   1.46  -0.00  -0.00  -0.00  -0.00  -0.51  -1.19
     74:    0.00   0.00   0.00  -0.00   0.00   0.00  -0.00   0.00   0.59   0.02   1.10   0.04   0.00   0.00
     78:    0.24   4.02  -0.00   0.03   0.01   0.00  -0.05  -0.02   0.00  -0.00  -0.00   0.00  -0.24   0.02
     79:   -0.08   0.11   0.00  -0.16  -0.03   0.00  -0.02  -0.01  -0.00  -0.00  -0.00   0.00  -2.69  -0.25
     82:    7.82   1.94   3.88  10.16   2.90  -0.00   6.83  -0.08   0.00  -0.00  -0.00   0.00   0.53  -0.69
     83:    0.17   0.21   0.54   0.25   0.85   0.00   2.17  -0.27   0.00  -0.00   0.00  -0.00  -0.37  -9.47
     85:   -0.00  -0.00   0.00   0.00   0.00  17.22  -0.00   0.00  28.22   3.54  20.40  14.10   0.00   0.00
     86:   -0.00  -0.00   0.00   0.00   0.00  -0.98  -0.00   0.00   0.10   0.01  -2.28  -1.58   0.00   0.00
     88:    2.88   0.71  10.59   5.13  -0.07  -0.00  -0.11   8.38  -0.00   0.00  -0.00   0.00   0.19  -0.23
     89:    0.06   0.07   1.46   0.93  -0.10  -0.00  -0.29   2.92   0.00  -0.00  -0.00   0.00  -0.14  -0.68
     97:    0.24   4.03   0.00   0.02   0.02  -0.00  -0.05  -0.02   0.00   0.00  -0.00   0.00  -0.24   0.04
     98:   -0.08   0.11   0.00  -0.11  -0.07  -0.00  -0.02  -0.01   0.00   0.00   0.00  -0.00  -2.70  -0.59
    101:    8.21   2.02   3.35   7.19   6.53   0.00   6.73  -0.10   0.00   0.00  -0.00   0.00   0.56   0.36
    102:    0.18   0.22   0.46  -0.10   1.22  -0.00   2.10  -0.27  -0.00   0.00  -0.00  -0.00  -0.39  -9.83
    104:    0.00   0.00   0.00  -0.00   0.00  17.22   0.00   0.00  18.37  13.39  30.36   4.14   0.00   0.00
    105:    0.00   0.00  -0.00   0.00   0.00  -0.98   0.00  -0.00   0.07   0.05  -3.39  -0.46  -0.00  -0.00
    107:    2.49   0.61  11.13   4.00   0.42  -0.00  -0.07   8.47  -0.00  -0.00  -0.00   0.00   0.17   0.31
    108:    0.05   0.06   1.53   1.13  -0.33  -0.00  -0.25   2.94   0.00  -0.00   0.00   0.00  -0.12  -1.21
    115:    5.54   9.19   0.00  11.13   1.81  -0.00   9.88   3.47   0.00   0.00   0.00   0.00   7.80   8.94
    116:   -0.02   0.16  -0.00   0.13   0.02   0.00  -0.15  -0.05   0.00   0.00  -0.00   0.00  11.27  13.29
    121:    5.54   9.17   0.00   8.07   4.87   0.00  10.15   3.21   0.00   0.00   0.00  -0.00   7.81  21.37
    122:   -0.02   0.16   0.00   0.10   0.06  -0.00  -0.15  -0.05   0.00  -0.00   0.00  -0.00  11.29  31.76
    125:    0.00   0.00   0.00  -0.00   0.00   0.25   0.00   0.00   0.48   0.35   1.21   0.16   0.00   0.00
    127:    5.53   9.09   0.00   0.25  12.76   0.00   0.00  13.35   0.00   0.00   0.00   0.00   7.80   2.66
    128:   -0.02   0.16   0.00   0.00   0.16  -0.00  -0.00  -0.20   0.00   0.00   0.00   0.00  11.27   3.95
    131:   -0.00  -0.00  -0.00   0.00  -0.00   0.25   0.00   0.00   0.03   0.80   0.04   1.33   0.00   0.00
    133:    5.54   9.20   0.00  11.12   1.80   0.00   9.88   3.47  -0.00   0.00   0.00   0.00   7.80   8.94
    134:   -0.02   0.16  -0.00   0.13   0.02  -0.00  -0.15  -0.05  -0.00   0.00   0.00   0.00  11.27  13.29
    139:    5.54   9.17   0.00   8.08   4.88   0.00  10.15   3.20   0.00  -0.00   0.00   0.00   7.81  21.37
    140:   -0.02   0.16   0.00   0.10   0.06   0.00  -0.15  -0.05   0.00   0.00   0.00   0.00  11.29  31.76
    143:   -0.00  -0.00   0.00  -0.00   0.00   0.25  -0.00   0.00   0.48   0.35   1.21   0.16   0.00  -0.00
    145:    5.52   9.10   0.00   0.25  12.75  -0.00   0.00  13.37   0.00   0.00   0.00   0.00   7.81   2.66
    146:   -0.02   0.16   0.00   0.00   0.16  -0.00  -0.00  -0.20   0.00   0.00  -0.00  -0.00  11.28   3.95
[...]
    1.C          0.149  -0.000  -0.003         0.056   0.000   0.150         0.327  -0.000  -0.020
    2.C         -0.039   0.000  -0.100         0.048  -0.000  -0.268        -0.210  -0.000   0.123
    3.C         -0.029  -0.000   0.110         0.106   0.000   0.299         0.178   0.000   0.029
    4.C          0.149   0.000  -0.003        -0.056  -0.000  -0.150        -0.327  -0.000   0.020
    5.C         -0.039  -0.000  -0.100        -0.048   0.000   0.268         0.210   0.000  -0.123
    6.C         -0.029   0.000   0.110        -0.106  -0.000  -0.299        -0.178  -0.000  -0.029
    7.H         -0.209   0.000   0.148        -0.256   0.000   0.216         0.031  -0.000  -0.294
    8.H         -0.227   0.000  -0.216        -0.238  -0.000  -0.316         0.069   0.000  -0.197
    9.H         -0.538   0.000  -0.019         0.078   0.000  -0.161         0.410  -0.000   0.038
   10.H         -0.209   0.000   0.147         0.256  -0.000  -0.215        -0.031   0.000   0.293
   11.H         -0.227  -0.000  -0.216         0.238   0.000   0.316        -0.069   0.000   0.197
   12.H         -0.538   0.000  -0.019        -0.078   0.000   0.161        -0.411   0.000  -0.038


                      3079.772                      3089.310                      3090.612
              ------------------------      ------------------------      ------------------------
    1.C          0.001  -0.000  -0.037         0.001  -0.000  -0.051         0.001   0.000   0.005
    2.C          0.028  -0.000   0.017         0.015   0.000   0.011        -0.038   0.000  -0.022
    3.C         -0.029   0.000   0.016         0.024   0.000  -0.014         0.036   0.000  -0.019
    4.C          0.001  -0.000  -0.035        -0.001  -0.000   0.050        -0.001  -0.000  -0.005
    5.C          0.028   0.000   0.017        -0.017   0.000  -0.012         0.038  -0.000   0.022
    6.C         -0.029  -0.000   0.016        -0.022  -0.000   0.014        -0.036  -0.000   0.019
    7.H         -0.336   0.000  -0.204        -0.186  -0.000  -0.115         0.437  -0.000   0.264
    8.H          0.349   0.000  -0.192        -0.283  -0.000   0.157        -0.422  -0.000   0.231
    9.H         -0.009  -0.000   0.419         0.013   0.000  -0.582         0.001   0.000   0.054
   10.H         -0.334   0.000  -0.203         0.204  -0.000   0.125        -0.445   0.000  -0.269
   11.H          0.350  -0.000  -0.193         0.263   0.000  -0.147         0.416  -0.000  -0.228
   12.H         -0.009   0.000   0.438        -0.013   0.000   0.594        -0.001  -0.000  -0.052


                      3102.798                      3104.059                      3111.807
              ------------------------      ------------------------      ------------------------
    1.C          0.001  -0.000  -0.049         0.003   0.000  -0.006        -0.001  -0.000   0.034
    2.C         -0.020   0.000  -0.009        -0.041  -0.000  -0.026         0.033  -0.000   0.020
    3.C          0.029  -0.000  -0.013        -0.034   0.000   0.021         0.033  -0.000  -0.018
    4.C          0.001  -0.000  -0.050         0.003  -0.000  -0.006         0.001   0.000  -0.036
    5.C         -0.019   0.000  -0.008        -0.039   0.000  -0.025        -0.033   0.000  -0.020
    6.C          0.030  -0.000  -0.014        -0.034  -0.000   0.021        -0.033  -0.000   0.018
    7.H          0.213  -0.000   0.124         0.463  -0.000   0.283        -0.358   0.000  -0.217
    8.H         -0.310  -0.000   0.166         0.395   0.000  -0.220        -0.361  -0.000   0.199
    9.H         -0.011  -0.000   0.561        -0.006  -0.000   0.067        -0.008  -0.000   0.393
   10.H          0.198   0.000   0.115         0.451  -0.000   0.275         0.364  -0.000   0.221
   11.H         -0.331  -0.000   0.178         0.396  -0.000  -0.221         0.362  -0.000  -0.199
   12.H         -0.011  -0.000   0.547        -0.006   0.000   0.068         0.008  -0.000  -0.374




 List of All Frequencies:


 Intensities
 ===========

               Frequency       Dipole Strength        Absorption Intensity (degeneracy not counted)
                 cm-1           1e-40 esu2 cm2          km/mole
              ----------          ----------          ----------
              399.598809            0.000606            0.000061
              399.757390            0.000085            0.000009
              604.111764            0.000000            0.000000
              605.150621            0.000003            0.000000
              666.178033          662.168095          110.569827
              698.909908            0.000000            0.000000
              836.411280            0.000001            0.000000
              837.042020            0.000108            0.000023
              951.931151            0.000030            0.000007
              952.717940            0.001816            0.000434
              977.286674            0.000033            0.000008
              986.144642            0.000092            0.000023
              997.228968            0.000969            0.000242
             1029.087928           26.100291            6.732493
             1029.807619           26.084159            6.733037
             1138.665783            0.006259            0.001786
             1158.247077            0.000009            0.000003
             1159.624261            0.000007            0.000002
             1326.651362            0.000871            0.000290
             1333.261971            0.000001            0.000000
             1462.848339           13.345825            4.893536
             1463.962937           13.408990            4.920443
             1582.668307            0.000002            0.000001
             1583.002542            0.000001            0.000000
             3079.772151            0.064597            0.049867
             3089.309911            0.016336            0.012650
             3090.612271            0.002975            0.002305
             3102.798325           41.963846           32.636750
             3104.059421           42.036300           32.706388
             3111.807185            0.007858            0.006129



 ============================
 Statistical Thermal Analysis  ***  ideal gas assumed  ***
 ============================
  
 Pressure:                  1.000000 atm.
 Temperature:             298.150000 K



 Moments of Inertia [amu*bohr^2] and principal axis
 ==================================================

         318.6377        318.8284        637.4661
 ------------------------------------------------
          -0.9961         -0.0880          0.0000
           0.0000          0.0000         -1.0000
          -0.0880          0.9961          0.0000


 The rotational contribution to the molecular entropy includes
 a term, dependent on the symmetry number sigma. The results 
 reported below were computed using sigma = 4, determined from
 the point group symmetry of the input geometry (D(2H)). 
 If this is not the correct symmetry, try symmetrizing the molecule before
 running the calculation (note: linear molecules should be aligned along one
 of the Cartesian axes).
 Contributions from frequencies below 20 1/cm are not included in
 the vibrational sums. Their contributions, if any, are reported separately.


     Temp                                                       Transl     Rotat    Vibrat     Total
     ----                                                       ------     -----    ------     -----

     298.15   Entropy (cal/mole-K):                             38.979    22.919     4.758    66.657
              Internal Energy (Kcal/mole):                       0.889     0.889    62.181    63.959
              Constant Volume Heat Capacity (cal/mole-K):        2.981     2.981    11.895    17.857

              Summary of energy terms
                                                   hartree              eV         kcal/mol           kJ/mol
                                      --------------------     -----------       ----------      -----------
              Bond Energy:              -2.744828640724518        -74.6906         -1722.41         -7206.55
              Internal Energy:           0.101924824210018          2.7735            63.96           267.60
              pV/n = RT:                 0.000944186013486          0.0257             0.59             2.48
              Enthalpy H:               -2.641959630501014        -71.8914         -1657.85         -6936.46
              -T*S:                     -0.031670815198600         -0.8618           -19.87           -83.15
              Gibbs free energy:        -2.673630445699614        -72.7532         -1677.73         -7019.62
 

 ***************************************************************************************************
 


====================================================================
*** DONE CALCULATING ANALYTICAL SECOND DERIVATIVES OF THE ENERGY ***
====================================================================

 
 
 ========================
 No memory problems found
 ========================
 
 Maximum number of active allocate calls:        1281
 
 *******************************************************************************

                             A D F   E X I T
 NORMAL TERMINATION



 =================
 Timing Statistics
 =================
  
 Total Used :                     CPU=       54.93      System=        0.98     Elapsed=       55.95

 Calls  Section                     ( Mean, Percentage )
 ---------------------------------------------------------------------------------------------------
     3  ><      ................      0.00    0.00             0.00    0.12             0.00    0.01
     1  INIT    ................      0.44    0.81             0.00    0.04             0.45    0.80
     1  GEOMET  ................      0.03    0.05             0.01    0.59             0.03    0.06
     1  FRAGM   ................      0.01    0.03             0.01    1.23             0.03    0.05
     1  INPUTA  ................      0.00    0.00             0.00    0.00             0.00    0.00
     1  ATDEN   ................      0.00    0.01             0.00    0.01             0.00    0.01
     1  MAINSY  ................      0.02    0.03             0.00    0.38             0.02    0.04
     1  SYMFIT  ................      0.00    0.01             0.00    0.01             0.00    0.01
     1  CORORT  ................      0.00    0.00             0.00    0.01             0.00    0.00
     1  SYMORB  ................      0.00    0.00             0.00    0.01             0.00    0.00
     1  CLSMAT  ................      0.01    0.01             0.00    0.01             0.01    0.01
     1  ORTHON  ................      0.01    0.02             0.00    0.00             0.01    0.02
     1  GENPT   ................      0.06    0.12             0.01    1.23             0.08    0.14
     1  PTBAS   ................      0.06    0.11             0.00    0.00             0.06    0.11
    13  FOCKY   ................      0.17    4.05             0.00    1.53             0.17    4.01
    13  FOCKTR  ................      0.00    0.04             0.00    0.25             0.00    0.05
    13  SDIIS   ................      0.00    0.06             0.00    0.67             0.00    0.08
     1  COREPS  ................      0.14    0.25             0.00    0.00             0.14    0.24
     1  TOTEN   ................      0.60    1.10             0.02    1.63             0.62    1.11
     1  POPAN   ................      0.00    0.00             0.00    0.23             0.00    0.01
     1  DEBYE   ................      0.00    0.01             0.00    0.18             0.01    0.01
     1  INPUTE  ................      0.00    0.00             0.00    0.00             0.00    0.00
     1  SYMORE  ................      0.00    0.00             0.00    0.00             0.00    0.00
     1  METS    ................      0.00    0.00             0.00    0.00             0.00    0.00
     1  CETS    ................      0.01    0.01             0.00    0.00             0.01    0.01
     2  ELNRGY  ................      0.13    0.48             0.00    0.42             0.13    0.48
     1  POPUL   ................      0.01    0.02             0.00    0.00             0.01    0.02
     1  ENGRAD  ................      0.00    0.00             0.00    0.00             0.00    0.00
     1  ENHESS  ................     50.94   92.74             0.89   91.06            51.87   92.71
     1  EXIT PROCEDURE .........      0.01    0.02             0.00    0.41             0.02    0.03


 Currently Open Files (EXIT00)
 ====================

 Unit    Access Format  Status   Type       Ident (file)
 -------------------------------------------------------
   3      SEQ    FORM   TRANSP  NORMAL      LOGFILE
                                          ( logfile )

 ***************************************************************************************************
 (LOGFILE)
 <Sep02-2020> <12:17:49>  ADF 2019  RunTime: Sep02-2020 12:17:49  Nodes: 1  Procs: 1
 <Sep02-2020> <12:17:49>  Hydrogen (TZP)
 <Sep02-2020> <12:17:49>  RunType   : CREATE
 <Sep02-2020> <12:17:49>  Net Charge: 0 (Nuclei minus Electrons)
 <Sep02-2020> <12:17:49>  Symmetry  : ATOM
  Coordinates
    Atom         X           Y           Z   (Angstrom)
    1.H         0.000000    0.000000    0.000000
 <Sep02-2020> <12:17:49>  >>>> CORORT
 <Sep02-2020> <12:17:49>  >>>> CLSMAT
 <Sep02-2020> <12:17:49>  >>>> ORTHON
 <Sep02-2020> <12:17:49>  >>>> GENPT
 <Sep02-2020> <12:17:49>  Block Length=  64
 <Sep02-2020> <12:17:49>  >>>> PTBAS
 <Sep02-2020> <12:17:49>  >>>> CYCLE
 <Sep02-2020> <12:17:49>              |Error|         MaxErr       Wt(A-DIIS)
 <Sep02-2020> <12:17:49>      1      0.00000000      0.00000000
 <Sep02-2020> <12:17:49>      2      0.03052909      0.02968459
 <Sep02-2020> <12:17:49>      3      0.00718138      0.00670742    100.0
 <Sep02-2020> <12:17:49>      4      0.00117303      0.00114116      0.1
 <Sep02-2020> <12:17:49>      5      0.00002783      0.00002380      0.0
 <Sep02-2020> <12:17:50>      6      0.00000153      0.00000130      0.0
 <Sep02-2020> <12:17:50>      7      0.00000000      0.00000000      0.0
 <Sep02-2020> <12:17:50>  SCF converged
 <Sep02-2020> <12:17:50>      8      0.00000000      0.00000000      0.0
 <Sep02-2020> <12:17:50>  >>>> POPAN
 <Sep02-2020> <12:17:50>  >>>> DEBYE
 <Sep02-2020> <12:17:50>  NORMAL TERMINATION
 <Sep02-2020> <12:17:50>  END
 <Sep02-2020> <12:17:50>  ADF 2019  RunTime: Sep02-2020 12:17:50  Nodes: 1  Procs: 1
 <Sep02-2020> <12:17:50>  Carbon (TZP)
 <Sep02-2020> <12:17:50>  RunType   : CREATE
 <Sep02-2020> <12:17:50>  Net Charge: 0 (Nuclei minus Electrons)
 <Sep02-2020> <12:17:50>  Symmetry  : ATOM
  Coordinates
    Atom         X           Y           Z   (Angstrom)
    1.C         0.000000    0.000000    0.000000
 <Sep02-2020> <12:17:50>  >>>> CORORT
 <Sep02-2020> <12:17:50>  >>>> CLSMAT
 <Sep02-2020> <12:17:50>  >>>> ORTHON
 <Sep02-2020> <12:17:50>  >>>> GENPT
 <Sep02-2020> <12:17:50>  Block Length=  72
 <Sep02-2020> <12:17:50>  >>>> PTBAS
 <Sep02-2020> <12:17:50>  >>>> CYCLE
 <Sep02-2020> <12:17:50>              |Error|         MaxErr       Wt(A-DIIS)
 <Sep02-2020> <12:17:50>      1      0.00000000      0.00000000
 <Sep02-2020> <12:17:50>      2      4.48324754      3.31969244    100.0
 <Sep02-2020> <12:17:50>      3      1.61537707      1.30410194    100.0
 <Sep02-2020> <12:17:50>      4      0.72706284      0.59053131    100.0
 <Sep02-2020> <12:17:50>      5      0.40898688      0.33263800    100.0
 <Sep02-2020> <12:17:50>      6      0.13548919      0.10594416    100.0
 <Sep02-2020> <12:17:50>      7      0.11406432      0.09088019     90.8
 <Sep02-2020> <12:17:50>      8      0.01170325      0.00926551      8.3
 <Sep02-2020> <12:17:50>      9      0.00078015      0.00061791      0.0
 <Sep02-2020> <12:17:50>     10      0.00000178      0.00000107      0.0
 <Sep02-2020> <12:17:50>     11      0.00000024      0.00000019      0.0
 <Sep02-2020> <12:17:50>     12      0.00000000      0.00000000      0.0
 <Sep02-2020> <12:17:50>  SCF converged
 <Sep02-2020> <12:17:50>     13      0.00000000      0.00000000      0.0
 <Sep02-2020> <12:17:50>  >>>> POPAN
 <Sep02-2020> <12:17:50>  >>>> DEBYE
 <Sep02-2020> <12:17:50>  NORMAL TERMINATION
 <Sep02-2020> <12:17:50>  END
 <Sep02-2020> <12:17:50>  ADF 2019  RunTime: Sep02-2020 12:17:50  Nodes: 1  Procs: 6
 <Sep02-2020> <12:17:51>  *** (NO TITLE) ***
 <Sep02-2020> <12:17:51>  RunType   : SINGLE POINT
 <Sep02-2020> <12:17:51>  Net Charge: 0 (Nuclei minus Electrons)
 <Sep02-2020> <12:17:51>  Symmetry  : NOSYM
 <Sep02-2020> <12:17:51>  >>>> FRAGM
  Coordinates
    Atom         X           Y           Z   (Angstrom)
    1.C         0.029688    4.000000   -1.398577
    2.C        -1.196990    4.000000   -0.725332
    3.C        -1.226683    4.000000    0.673711
    4.C        -0.029692    4.000000    1.398648
    5.C         1.196955    4.000000    0.725313
    6.C         1.226727    4.000000   -0.673736
    7.H        -2.130139    4.000000   -1.291480
    8.H        -2.183120    4.000000    1.199796
    9.H        -0.052952    4.000000    2.490053
   10.H         2.130122    4.000000    1.291475
   11.H         2.183151    4.000000   -1.199796
   12.H         0.052934    4.000000   -2.490074
 <Sep02-2020> <12:17:51>  >>>> CORORT
 <Sep02-2020> <12:17:51>  >>>> CLSMAT
 <Sep02-2020> <12:17:51>  >>>> ORTHON
 <Sep02-2020> <12:17:51>  >>>> GENPT
 <Sep02-2020> <12:17:51>  Block Length= 128
 <Sep02-2020> <12:17:51>  >>>> PTBAS
 <Sep02-2020> <12:17:51>  >>>> CYCLE
 <Sep02-2020> <12:17:51>              |Error|         MaxErr       Wt(A-DIIS)
 <Sep02-2020> <12:17:51>      1      5.99093452      0.98025636
 <Sep02-2020> <12:17:52>      2      0.89231079      0.18711001    100.0
 <Sep02-2020> <12:17:52>      3      0.52145238      0.10260897    100.0
 <Sep02-2020> <12:17:52>      4      0.74322773      0.17265733    100.0
 <Sep02-2020> <12:17:52>      5      0.07621641      0.01072849      9.8
 <Sep02-2020> <12:17:52>      6      0.01070818      0.00169501      0.7
 <Sep02-2020> <12:17:52>      7      0.00113719      0.00027559      0.0
 <Sep02-2020> <12:17:53>      8      0.00033846      0.00008505      0.0
 <Sep02-2020> <12:17:53>      9      0.00015752      0.00004214      0.0
 <Sep02-2020> <12:17:53>     10      0.00001773      0.00000484      0.0
 <Sep02-2020> <12:17:53>     11      0.00000513      0.00000127      0.0
 <Sep02-2020> <12:17:53>     12      0.00000122      0.00000026      0.0
 <Sep02-2020> <12:17:53>  SCF converged
 <Sep02-2020> <12:17:53>     13      0.00000003      0.00000001      0.0
 <Sep02-2020> <12:17:54>  >>>> TOTEN
 <Sep02-2020> <12:17:54>  >>>> POPAN
 <Sep02-2020> <12:17:54>  >>>> DEBYE
 <Sep02-2020> <12:17:54>  >>>> AMETS
 <Sep02-2020> <12:17:54>   Bond Energy          -2.74482864 a.u.
 <Sep02-2020> <12:17:54>   Bond Energy         -74.69058760 eV
 <Sep02-2020> <12:17:54>   Bond Energy       -1722.41       kcal/mol
 <Sep02-2020> <12:17:54>  >>>> POPUL
 <Sep02-2020> <12:17:54>  >>>> ENGRAD
 <Sep02-2020> <12:17:54>  >>>> ENHESS
 <Sep02-2020> <12:17:55>  === NUCLEUS:     1
 <Sep02-2020> <12:17:59>  === NUCLEUS:     2
 <Sep02-2020> <12:18:04>  === NUCLEUS:     3
 <Sep02-2020> <12:18:08>  === NUCLEUS:     4
 <Sep02-2020> <12:18:13>  === NUCLEUS:     5
 <Sep02-2020> <12:18:17>  === NUCLEUS:     6
 <Sep02-2020> <12:18:22>  === NUCLEUS:     7
 <Sep02-2020> <12:18:26>  === NUCLEUS:     8
 <Sep02-2020> <12:18:30>  === NUCLEUS:     9
 <Sep02-2020> <12:18:34>  === NUCLEUS:    10
 <Sep02-2020> <12:18:38>  === NUCLEUS:    11
 <Sep02-2020> <12:18:42>  === NUCLEUS:    12
 <Sep02-2020> <12:18:46>  >>>> CALC_HESS_PMAT
 <Sep02-2020> <12:18:46>  >>>> CALC_HESS_WMAT
 <Sep02-2020> <12:18:46>  NORMAL TERMINATION
 <Sep02-2020> <12:18:46>  END
