

 Parallel Execution: Process Information
 ==============================================================================
 Rank   Node Name                              NodeID   MyNodeRank  NodeMaster
    0   magnesium.science.psu.edu                 0          0          0
    1   magnesium.science.psu.edu                 0          1         -1
    2   magnesium.science.psu.edu                 0          2         -1
    3   magnesium.science.psu.edu                 0          3         -1
    4   magnesium.science.psu.edu                 0          4         -1
    5   magnesium.science.psu.edu                 0          5         -1
 ==============================================================================


May use up to 7495MB of RAM as shared memory on node 0
 
ATOMS
C       0.02975132       4.00000000      -1.39930677
C      -1.19769002       4.00000000      -0.72501762
C      -1.22745905       4.00000000       0.67512237
C      -0.02978673       4.00000000       1.40097306
C       1.19765455       4.00000000       0.72668388
C       1.22742359       4.00000000      -0.67345606
H      -2.11275548       4.00000000      -1.27959421
H      -2.16526916       4.00000000       1.19030408
H      -0.05253131       4.00000000       2.47073130
H       2.11272002       4.00000000       1.28126045
H       2.16523372       4.00000000      -1.18863774
H       0.05270855       4.00000000      -2.47906274
END

XC
 gga BP86
end

symmetry nosym

geometry
end

Fragments
H t21.H
C t21.C
End

 *******************************************************************************
 *                                                                             *
 *  -------------------------------------                                      *
 *   Amsterdam Density Functional  (ADF)         2019                          *
 *  -------------------------------------                                      *
 *                                               r75281 2019-06-03             *
 *                                                                             *
 *                                                                             *
 *                              =================                              *
 *                              |               |                              *
 *                              |     A D F     |                              *
 *                              |               |                              *
 *                              =================                              *
 *                                                                             *
 *                                                                             *
 *   Online information and documentation:  https://www.scm.com/support/       *
 *   E-mail:  support@scm.com   info@scm.com                                   *
 *                                                                             *
 *   Scientific publications using ADF results must be properly referenced     *
 *   See the User Manuals (or the web site) for recommended citations          *
 *   The terms and conditions of the End User License Agreement apply to       *
 *   the use of ADF, https://www.scm.com/license-terms/                        *
 *                                                                             *
 **********************  x86_64_linux_intel / intelmpi  ************************
 
 Licensed to: Prof. Lasse Jensen / Penn State University / University Park / PA  / USA
 SCM User ID: u8493
  
 ADF 2019  RunTime: Sep02-2020 11:38:43  Nodes: 1  Procs: 6

 Temporary files are created in /scratch/kid_0.127636349


Communication costs MPI_COMM_WORLD:      0.415 usec per message,   0.0072 usec per 8-byte item
Communication costs for intra-node:      0.432 usec per message,   0.0071 usec per 8-byte item

 *** (NO TITLE) ***



 ===========================
 A T T A C H E D   F I L E S
 ===========================
  



 ===============================
 M O D E L   P A R A M E T E R S
 ===============================
  
 DENSITY FUNCTIONAL POTENTIAL (scf)
    LDA:                               VWN                                      
    Gradient Corrections:              Becke88 Perdew86                        == Not Default ==

 SPIN  (restricted / unrestr.)
    Molecule:                          Restricted                               
    Fragments:                         Restricted                               

 OTHER ASPECTS
    Relativistic Corrections:          ---                                      

    Nuclear Charge Density Model:      Point Charge Nuclei                      
    Core Treatment:                    Frozen Orbital(s)                        

    Hyperfine or Zeeman Interaction:   ---                                      


 Fragment File(s)
 ----------------
 C:
         file : t21.C
         jobid: ADF 2019  RunTime: Sep02-2020 11:38:42  Nodes: 1  Procs: 1
         title: Carbon (TZP)
 H:
         file : t21.H
         jobid: ADF 2019  RunTime: Sep02-2020 11:38:42  Nodes: 1  Procs: 1
         title: Hydrogen (TZP)



                                   *********************************************
                                   *  R U N   T Y P E : GEOMETRY OPTIMIZATION  *
                                   *********************************************
  



 ===============
 G E O M E T R Y  ***  Planar Molecule  ***
 ===============
  

 ATOMS
 =====                            X Y Z                    CHARGE
                                (Angstrom)             Nucl     +Core       At.Mass
                       --------------------------    ----------------       -------
    1  C               0.0298    4.0000   -1.3993      6.00      6.00       12.0000
    2  C              -1.1977    4.0000   -0.7250      6.00      6.00       12.0000
    3  C              -1.2275    4.0000    0.6751      6.00      6.00       12.0000
    4  C              -0.0298    4.0000    1.4010      6.00      6.00       12.0000
    5  C               1.1977    4.0000    0.7267      6.00      6.00       12.0000
    6  C               1.2274    4.0000   -0.6735      6.00      6.00       12.0000
    7  H              -2.1128    4.0000   -1.2796      1.00      1.00        1.0078
    8  H              -2.1653    4.0000    1.1903      1.00      1.00        1.0078
    9  H              -0.0525    4.0000    2.4707      1.00      1.00        1.0078
   10  H               2.1127    4.0000    1.2813      1.00      1.00        1.0078
   11  H               2.1652    4.0000   -1.1886      1.00      1.00        1.0078
   12  H               0.0527    4.0000   -2.4791      1.00      1.00        1.0078


 FRAGMENTS
 =========                                     Atoms in this Fragment     Cart. coord.s (Angstrom)
                                               -------------------------------------------------------
    1  C                                                 1  C            0.0298    4.0000   -1.3993
    2  C                                                 2  C           -1.1977    4.0000   -0.7250
    3  C                                                 3  C           -1.2275    4.0000    0.6751
    4  C                                                 4  C           -0.0298    4.0000    1.4010
    5  C                                                 5  C            1.1977    4.0000    0.7267
    6  C                                                 6  C            1.2274    4.0000   -0.6735
    7  H                                                 7  H           -2.1128    4.0000   -1.2796
    8  H                                                 8  H           -2.1653    4.0000    1.1903
    9  H                                                 9  H           -0.0525    4.0000    2.4707
   10  H                                                10  H            2.1127    4.0000    1.2813
   11  H                                                11  H            2.1652    4.0000   -1.1886
   12  H                                                12  H            0.0527    4.0000   -2.4791


 Interatomic Distance Matrix (Angstrom)
 --------------------------------------

   1)     0.000
   2)     1.400   0.000
   3)     2.426   1.400   0.000
   4)     2.801   2.426   1.400   0.000
   5)     2.426   2.801   2.426   1.400   0.000
   6)     1.400   2.426   2.801   2.426   1.400   0.000
   7)     2.146   1.070   2.146   3.395   3.871   3.395   0.000
   8)     3.395   2.146   1.070   2.146   3.395   3.871   2.470   0.000
   9)     3.871   3.395   2.146   1.070   2.146   3.395   4.279   2.470   0.000
  10)     3.395   3.871   3.395   2.146   1.070   2.146   4.941   4.279   2.470   0.000
  11)     2.146   3.395   3.871   3.395   2.146   1.070   4.279   4.941   4.279   2.470
          0.000
  12)     1.080   2.154   3.404   3.881   3.404   2.154   2.475   4.288   4.951   4.288
          2.475   0.000

 Min. Distance =    1.0700
 Max. Distance =    4.9509



 =====================================
 S Y M M E T R Y ,   E L E C T R O N S
 =====================================
  
 Symmetry: NOSYM

 Irreducible Representations, including subspecies
 -------------------------------------------------
 A


 Configuration of Valence Electrons
 ==================================
 ( determined in the SCF procedure )

 Total:   42

 Net Charge: 0 (Nuclei minus Electrons)

 Aufbau principle for MO occupations will be applied through SCF cycle no.     150
 Thereafter, the program will assign electrons to MOs that are spatially
 similar to the occupied MOs in a "reference" cycle ("KeepOrbitals").
 The reference cycle is always the PREVIOUS cycle: it will evolve with
 the SCF procedure.
1
 ***************************************************************************************************



                                      ****************************************
                                      *  B U I L D : (Fragments, Functions)  *
                                      ****************************************
  

 Total nr. of (C)SFOs (summation over all irreps) :   150

 Specify PRINT SFO in the input file to get a full list

 Nr. of SFOs for ir.rep.           A :   150



 ================================
 (Slater-type)  F U N C T I O N S  ***  (Basis and Fit)  ***
 ================================
  

 Atom Type    1  (C)
 ==============

 Valence Basis Sets:   9
 -----------------------
   1 S    7.680000
   1 S    5.000000
   2 S    1.280000
   2 S    2.100000
   2 S    4.600000
   2 P    0.820000
   2 P    1.480000
   2 P    2.940000
   3 D    2.200000

 Atom Type    2  (H)
 ==============

 Valence Basis Sets:   4
 -----------------------
   1 S    0.690000
   1 S    0.920000
   1 S    1.580000
   2 P    1.250000


 BAS: List of all Elementary Cartesian Basis Functions
 =====================================================

 The numbering in the list below (to the right of the function characteristics) is referred
 to in print-outs of MO eigenvectors and Mulliken populations in the BAS representation
 (as contrasted to the SFO representation).

 Notes:
 1. The functions are characterized by a polynomial prefactor (powers of x,y,z and r) and
    an exponential decay factor alpha.
 2. Since the basis sets are specific for an atom TYPE, the individual functions occur on
    all atoms of that type.
 3. The word 'Core' in the left margin signals that it is a Core Function (CF) : not a
    degree of freedom in the valence set, but only used to ensure orthogonalization of
    the other valence basis functions on the frozen Core Orbitals.


 (power of) X  Y  Z  R     Alpha  on Atom
            ==========     =====     ==========

 C                                    1    2    3    4    5    6
                                  ---------------------------------------------------------------------------
            0  0  0  0     7.680      1   21   41   61   81  101
            0  0  0  0     5.000      2   22   42   62   82  102
            0  0  0  1     1.280      3   23   43   63   83  103
            0  0  0  1     2.100      4   24   44   64   84  104
            0  0  0  1     4.600      5   25   45   65   85  105
            1  0  0  0     0.820      6   26   46   66   86  106
            0  1  0  0     0.820      7   27   47   67   87  107
            0  0  1  0     0.820      8   28   48   68   88  108
            1  0  0  0     1.480      9   29   49   69   89  109
            0  1  0  0     1.480     10   30   50   70   90  110
            0  0  1  0     1.480     11   31   51   71   91  111
            1  0  0  0     2.940     12   32   52   72   92  112
            0  1  0  0     2.940     13   33   53   73   93  113
            0  0  1  0     2.940     14   34   54   74   94  114
            2  0  0  0     2.200     15   35   55   75   95  115
            1  1  0  0     2.200     16   36   56   76   96  116
            1  0  1  0     2.200     17   37   57   77   97  117
            0  2  0  0     2.200     18   38   58   78   98  118
            0  1  1  0     2.200     19   39   59   79   99  119
            0  0  2  0     2.200     20   40   60   80  100  120

 H                                    7    8    9   10   11   12
                                  ---------------------------------------------------------------------------
            0  0  0  0     0.690    121  127  133  139  145  151
            0  0  0  0     0.920    122  128  134  140  146  152
            0  0  0  0     1.580    123  129  135  141  147  153
            1  0  0  0     1.250    124  130  136  142  148  154
            0  1  0  0     1.250    125  131  137  143  149  155
            0  0  1  0     1.250    126  132  138  144  150  156

 Total number of charge fitting functions (nprimf)       804
 Total number of Cartesian basis functions (naos)        156
 Total number of Cartesian core functions  (ncos)          0



 Coordinates (Cartesian)
 =======================

     Atom                    bohr                                 angstrom                 Geometric Variables
                   X           Y           Z              X           Y           Z       (0:frozen, *:LT par.)
 --------------------------------------------------------------------------------------------------------------
     1 C       0.056222    7.558904   -2.644307       0.029751    4.000000   -1.399307      1       2       3
     2 C      -2.263306    7.558904   -1.370085      -1.197690    4.000000   -0.725018      4       5       6
     3 C      -2.319561    7.558904    1.275796      -1.227459    4.000000    0.675122      7       8       9
     4 C      -0.056289    7.558904    2.647455      -0.029787    4.000000    1.400973     10      11      12
     5 C       2.263239    7.558904    1.373234       1.197655    4.000000    0.726684     13      14      15
     6 C       2.319494    7.558904   -1.272648       1.227424    4.000000   -0.673456     16      17      18
     7 H      -3.992529    7.558904   -2.418083      -2.112755    4.000000   -1.279594     19      20      21
     8 H      -4.091766    7.558904    2.249349      -2.165269    4.000000    1.190304     22      23      24
     9 H      -0.099270    7.558904    4.669005      -0.052531    4.000000    2.470731     25      26      27
    10 H       3.992462    7.558904    2.421231       2.112720    4.000000    1.281260     28      29      30
    11 H       4.091699    7.558904   -2.246200       2.165234    4.000000   -1.188638     31      32      33
    12 H       0.099605    7.558904   -4.684750       0.052709    4.000000   -2.479063     34      35      36
 --------------------------------------------------------------------------------------------------------------
1
 ***************************************************************************************************



                                              ***********************
                                              *  T E C H N I C A L  *
                                              ***********************
  



 =============================================================
 P A R A L L E L I Z A T I O N  and  V E C T O R I Z A T I O N
 =============================================================
  
 Nr of parallel processes:                                6
 Maximum vector length in NumInt loops:                 128



 ===============================
 G E O M E T R Y   U P D A T E S
 ===============================
  
 Optimization coordinates:                       Delocalized
 Optimization code branch:                       NEW
 Hessian update method:                          BFGS (Broyden-Fletcher-Goldfarb-Shanno)

 Iterative Geometry Improvements:
    Max. nr. of iterations:                         72
    Convergence criteria:
         Change in energy (hartree):                 0.0010000000
         Gradients (au/Angstrom):                    0.0010000000
         Cart/bondlength changes (Angstrom):         0.0100000000
    Max. step to take:
         Trust Radius:                               0.2000000000

 GDIIS (Geometry Direct Inversion in Iteration Space):
    First geometry cycle:                            0
    Max. number expansion vectors:                   5



 =====================
 S C F   U P D A T E S
 =====================
  
 Max. nr. of cycles:                               300
 Convergence criterion:                              0.0000010000
   secondary criterion:                              0.0010000000

 Mix parameter (when DIIS does not apply):           0.2000000000
 Mixed ADIIS+SDIIS will be used                  
    Max number of expansion vectors:                10
    Pure ADIIS when Max([F,P]) is above              0.1000000000
    Pure SDIIS when Max([F,P]) is below              0.0010000000



 =================
 P R E C I S I O N  ***  (General: NumInt, NeglectFunctionTails, ...)  ***
 =================
  

 NumInt:           Target precision:                 4.0000000000
 -------           Initial precision:                4.0000000000
                   Min. precision (optimization):    4.0000000000

 Neglect Functions:          Basis functions:        0.1000000000E-05
 ------------------          Fit functions:          0.1000000000E-05



 ===========================
 L I N E A R   S C A L I N G
 ===========================
  

 Cut-off radii density fit:                        0.1000000000E-07
 Overlap cut-off criterion AO matrix elements:     0.1000000000E-05
 Cut-offs for Coulomb potential and fitted density:0.1000000000E-07
 Cut-off criterion for Coulomb multipole terms:    0.1000000000E-07
 Progressive Convergence parameter:                 0.000000000    
1
 ***************************************************************************************************



                                            ***************************
                                            *  C O M P U T A T I O N  *
                                            ***************************
  

 Number of elements of the density matrix on this node (used, total):      1962     12246



 ===========================================
 Numerical Integration : Fuzzy Cells (Becke)
 ===========================================
  
 Becke grid quality: NORMAL         
  
 Lebedev angular grid order:             min:  11 max:  23
 Nr. of radial points:                   min:  46 max:  52

 Total nr. of points:      75657
 Nr. of blocks:              592
 Block length:               128
 Nr. of dummy points:        119


 Test of Precision of the Numerical Integration Grid
 ===================================================

 Integral of the Total Core Density:                   0.00000000000000



 ========================
 Density Fitting (zlmFit)
 ========================
  
 ZlmFit Fit Quality: NORMAL         
  
 Max L-expansion:                        min:   5 max:   6
 Nr. of radial interpolation points:     min:  36 max:  48



 =====
 S C F  ***  ScaSCF  ***
 =====
  
 Initial density matrix is calculated as sum of fragments

 CYCLE    1
 SCF Error: norm([F,P])=      6.048762431247, max([F,P])=      0.856352987893
 orbitals (Q,E):
 ---------------
 A :12...31          ( 2.00    -0.6655)  ( 2.00    -0.6266)  ( 2.00    -0.5988)  ( 2.00    -0.5761)
                     ( 2.00    -0.5749)  ( 2.00    -0.5085)  ( 2.00    -0.5076)  ( 2.00    -0.5041)
                     ( 2.00    -0.4071)  ( 2.00    -0.4069)  ( 0.00    -0.2175)  ( 0.00    -0.2172)
                     ( 0.00    -0.0798)  ( 0.00    -0.0692)  ( 0.00    -0.0348)  ( 0.00    -0.0343)
                     ( 0.00    -0.0103)  ( 0.00    -0.0101)  ( 0.00     0.0314)  ( 0.00     0.0543)

 CYCLE    2
   MIX coefficients:  0.8000  0.2000
 SCF Error: norm([F,P])=      0.890468834727, max([F,P])=      0.084012682336
 orbitals (Q,E):
 ---------------
 A :12...22          ( 2.00    -0.6010)  ( 2.00    -0.5437)  ( 2.00    -0.5420)  ( 2.00    -0.5080)
                     ( 2.00    -0.5071)  ( 2.00    -0.4398)  ( 2.00    -0.4392)  ( 2.00    -0.4377)
                     ( 2.00    -0.3404)  ( 2.00    -0.3403)  ( 0.00    -0.1523)

 CYCLE    3
  SDIIS (wt  0.000): -1.3080  2.3080
 A-DIIS (wt  1.000):  0.0000  1.0000
  DIIS coefficients:  0.0000  1.0000
 SCF Error: norm([F,P])=      0.527507972805, max([F,P])=      0.049307838921
 orbitals (Q,E):
 ---------------
 A :12...22          ( 2.00    -0.4004)  ( 2.00    -0.3602)  ( 2.00    -0.2969)  ( 2.00    -0.2969)
                     ( 2.00    -0.2943)  ( 2.00    -0.2470)  ( 2.00    -0.2224)  ( 2.00    -0.2224)
                     ( 2.00    -0.1496)  ( 2.00    -0.1495)  ( 0.00     0.0299)

 CYCLE    4
  SDIIS (wt  0.000):  0.2058  0.3172  0.4770
 A-DIIS (wt  1.000):  0.0000  0.6287  0.3713
  DIIS coefficients:  0.0000  0.6287  0.3713
 SCF Error: norm([F,P])=      0.730907282170, max([F,P])=      0.069228305070
 orbitals (Q,E):
 ---------------
 A :12...22          ( 2.00    -0.4713)  ( 2.00    -0.4095)  ( 2.00    -0.3941)  ( 2.00    -0.3740)
                     ( 2.00    -0.3736)  ( 2.00    -0.3299)  ( 2.00    -0.2996)  ( 2.00    -0.2993)
                     ( 2.00    -0.2294)  ( 2.00    -0.2294)  ( 0.00    -0.0416)

 CYCLE    5
  SDIIS (wt  0.947): -0.0226  0.2224  0.0866  0.7135
 A-DIIS (wt  0.053):  0.0000  0.0000  0.0000  1.0000
  DIIS coefficients: -0.0214  0.2106  0.0820  0.7288
 SCF Error: norm([F,P])=      0.071231003687, max([F,P])=      0.006265774894
 orbitals (Q,E):
 ---------------
 A :12...22          ( 2.00    -0.4817)  ( 2.00    -0.4235)  ( 2.00    -0.4068)  ( 2.00    -0.3842)
                     ( 2.00    -0.3837)  ( 2.00    -0.3365)  ( 2.00    -0.3118)  ( 2.00    -0.3115)
                     ( 2.00    -0.2373)  ( 2.00    -0.2372)  ( 0.00    -0.0504)

 CYCLE    6
  SDIIS (wt  0.997): -0.0017  0.0298  0.0083  0.1778  0.7859
 A-DIIS (wt  0.003):  0.0000  0.0000  0.0000  0.0000  1.0000
  DIIS coefficients: -0.0017  0.0297  0.0083  0.1772  0.7866
 SCF Error: norm([F,P])=      0.009307860721, max([F,P])=      0.001329520487
 orbitals (Q,E):
 ---------------
 A :12...22          ( 2.00    -0.4819)  ( 2.00    -0.4232)  ( 2.00    -0.4065)  ( 2.00    -0.3846)
                     ( 2.00    -0.3841)  ( 2.00    -0.3365)  ( 2.00    -0.3119)  ( 2.00    -0.3115)
                     ( 2.00    -0.2371)  ( 2.00    -0.2371)  ( 0.00    -0.0502)

 CYCLE    7
  SDIIS (wt  1.000):  0.0008  0.0046  0.0010  0.0379  0.1942  0.7615
  DIIS coefficients:  0.0008  0.0046  0.0010  0.0379  0.1942  0.7615
 SCF Error: norm([F,P])=      0.001323655818, max([F,P])=      0.000179848931
 orbitals (Q,E):
 ---------------
 A :12...22          ( 2.00    -0.4820)  ( 2.00    -0.4233)  ( 2.00    -0.4066)  ( 2.00    -0.3847)
                     ( 2.00    -0.3841)  ( 2.00    -0.3367)  ( 2.00    -0.3120)  ( 2.00    -0.3116)
                     ( 2.00    -0.2373)  ( 2.00    -0.2372)  ( 0.00    -0.0503)

 CYCLE    8
  SDIIS (wt  1.000):  0.0009  0.0006  0.0000  0.0127  0.0770  0.5821  0.3267
  DIIS coefficients:  0.0009  0.0006  0.0000  0.0127  0.0770  0.5821  0.3267
 SCF Error: norm([F,P])=      0.001457464035, max([F,P])=      0.000252241823
 orbitals (Q,E):
 ---------------
 A :12...22          ( 2.00    -0.4820)  ( 2.00    -0.4233)  ( 2.00    -0.4066)  ( 2.00    -0.3847)
                     ( 2.00    -0.3842)  ( 2.00    -0.3367)  ( 2.00    -0.3120)  ( 2.00    -0.3117)
                     ( 2.00    -0.2373)  ( 2.00    -0.2373)  ( 0.00    -0.0503)

 CYCLE    9
  SDIIS (wt  1.000):  0.0002 -0.0001 -0.0001  0.0014  0.0104  0.1058  0.0996  0.7827
  DIIS coefficients:  0.0002 -0.0001 -0.0001  0.0014  0.0104  0.1058  0.0996  0.7827
 SCF Error: norm([F,P])=      0.000116632447, max([F,P])=      0.000020161089
 orbitals (Q,E):
 ---------------
 A :12...22          ( 2.00    -0.4821)  ( 2.00    -0.4233)  ( 2.00    -0.4066)  ( 2.00    -0.3847)
                     ( 2.00    -0.3842)  ( 2.00    -0.3367)  ( 2.00    -0.3120)  ( 2.00    -0.3117)
                     ( 2.00    -0.2373)  ( 2.00    -0.2373)  ( 0.00    -0.0503)

 CYCLE   10
  SDIIS (wt  1.000):  0.0001 -0.0001 -0.0000 -0.0003 -0.0008  0.0101  0.0340  0.5563  0.4008
  DIIS coefficients:  0.0001 -0.0001 -0.0000 -0.0003 -0.0008  0.0101  0.0340  0.5563  0.4008
 SCF Error: norm([F,P])=      0.000112768856, max([F,P])=      0.000023866119
 orbitals (Q,E):
 ---------------
 A :12...22          ( 2.00    -0.4821)  ( 2.00    -0.4233)  ( 2.00    -0.4066)  ( 2.00    -0.3847)
                     ( 2.00    -0.3842)  ( 2.00    -0.3367)  ( 2.00    -0.3120)  ( 2.00    -0.3117)
                     ( 2.00    -0.2373)  ( 2.00    -0.2373)  ( 0.00    -0.0503)

 CYCLE   11
  SDIIS (wt  1.000):  0.0000 -0.0000 -0.0000 -0.0000 -0.0001  0.0013  0.0044  0.0789  0.0585  0.8571
  DIIS coefficients:  0.0000 -0.0000 -0.0000 -0.0000 -0.0001  0.0013  0.0044  0.0789  0.0585  0.8571
 SCF Error: norm([F,P])=      0.000002447699, max([F,P])=      0.000000380730
 orbitals (Q,E):
 ---------------
 A :12...22          ( 2.00    -0.4821)  ( 2.00    -0.4233)  ( 2.00    -0.4066)  ( 2.00    -0.3847)
                     ( 2.00    -0.3842)  ( 2.00    -0.3367)  ( 2.00    -0.3120)  ( 2.00    -0.3117)
                     ( 2.00    -0.2373)  ( 2.00    -0.2373)  ( 0.00    -0.0503)

 SCF CONVERGED

 CYCLE   12
 *** Using FIT density in Focky
  SDIIS (wt  1.000): -0.0000 -0.0000  0.0000 -0.0000 -0.0002 -0.0005 -0.0039 -0.0012  0.6023  0.4035
  DIIS coefficients: -0.0000 -0.0000  0.0000 -0.0000 -0.0002 -0.0005 -0.0039 -0.0012  0.6023  0.4035
 SCF Error: norm([F,P])=      0.000003116843, max([F,P])=      0.000000524547
 orbitals (Q,E):
 ---------------
 A :12...31          ( 2.00    -0.4821)  ( 2.00    -0.4233)  ( 2.00    -0.4066)  ( 2.00    -0.3847)
                     ( 2.00    -0.3842)  ( 2.00    -0.3367)  ( 2.00    -0.3120)  ( 2.00    -0.3117)
                     ( 2.00    -0.2373)  ( 2.00    -0.2373)  ( 0.00    -0.0503)  ( 0.00    -0.0503)
                     ( 0.00     0.0044)  ( 0.00     0.0295)  ( 0.00     0.0297)  ( 0.00     0.0622)
                     ( 0.00     0.0624)  ( 0.00     0.0903)  ( 0.00     0.0996)  ( 0.00     0.1426)


 Fit test: (difference of exact and fit density, squared integrated, result summed over spins)
         SCF:                                          0.00049502360263

 Gross Charges per Atom (Z minus electrons)
 ==========================================
             0.1801    0.1853    0.1853    0.1853    0.1854    0.1853   -0.1846   -0.1853   -0.1848   -0.1855
            -0.1844   -0.1822
 Net Total:  0.00000000



 =================================================================
 M U L T I P O L E   D E R I V E D   C H A R G E   A N A L Y S I S
 =================================================================

 See: M. Swart, P.Th. van Duijnen, J.G. Snijders, J.Comput.Chem., (2001), p. 79-88.

 --------------------------------------- 
 Multipole derived atomic charges (a.u.)
 --------------------------------------- 

        Atom    Level:     MDC-m        MDC-d        MDC-q
 ---------------------------------------------------------
     1     C            0.062621     0.035185    -0.125608
     2     C            0.063077     0.035830    -0.131341
     3     C            0.063385     0.036029    -0.130281
     4     C            0.063696     0.036229    -0.128437
     5     C            0.063248     0.035866    -0.130451
     6     C            0.063213     0.035996    -0.131199
     7     H           -0.063396    -0.035630     0.130388
     8     H           -0.063365    -0.035821     0.130084
     9     H           -0.063414    -0.036319     0.129247
    10     H           -0.063396    -0.035579     0.130268
    11     H           -0.063366    -0.035871     0.130222
    12     H           -0.062304    -0.035915     0.127108
 *** Using NEW gradient routines ***


 Geometry CYCLE 1
 ==============

 Energy gradients wrt nuclear displacements
 ==========================================

     Atom      Cartesian (a.u./angstrom)
                 X         Y         Z
 ----------------------------------------
     1 C     0.000422 -0.000000 -0.016854
     2 C    -0.024631  0.000000 -0.014477
     3 C    -0.025359 -0.000000  0.013832
     4 C    -0.000652 -0.000000  0.029360
     5 C     0.024806 -0.000000  0.014852
     6 C     0.025140  0.000000 -0.013436
     7 H     0.023844  0.000000  0.014552
     8 H     0.024489  0.000000 -0.013593
     9 H     0.000637 -0.000000 -0.028132
    10 H    -0.023872  0.000000 -0.014555
    11 H    -0.024483 -0.000000  0.013590
    12 H    -0.000341  0.000000  0.014861
 ----------------------------------------
 
----------------------------------------------------------------------
Geometry Convergence after Step   1       (Hartree/Angstrom,Angstrom)
----------------------------------------------------------------------
current energy                               -2.74326200 Hartree
energy change                      -2.74326200     0.00100000    F
constrained gradient max            0.02936002     0.00100000    F
constrained gradient rms            0.01544634     0.00066667    F
gradient max                        0.02936002
gradient rms                        0.01544634
cart. step max                      0.01759936     0.01000000    F
cart. step rms                      0.00713387     0.00666667    F
 


 Coordinates (Cartesian)
 =======================

     Atom                    bohr                                 angstrom                 Geometric Variables
                   X           Y           Z              X           Y           Z       (0:frozen, *:LT par.)
 --------------------------------------------------------------------------------------------------------------
     1 C       0.056220    7.558905   -2.643170       0.029751    4.000000   -1.398706      1       2       3
     2 C      -2.262741    7.558905   -1.371042      -1.197391    4.000000   -0.725524      4       5       6
     3 C      -2.318883    7.558905    1.273759      -1.227100    4.000000    0.674044      7       8       9
     4 C      -0.056264    7.558905    2.644175      -0.029774    4.000000    1.399237     10      11      12
     5 C       2.262572    7.558905    1.371109       1.197302    4.000000    0.725559     13      14      15
     6 C       2.319103    7.558904   -1.273718       1.227216    4.000000   -0.674022     16      17      18
     7 H      -4.022476    7.558904   -2.438700      -2.128602    4.000000   -1.290504     19      20      21
     8 H      -4.122530    7.558904    2.265635      -2.181549    4.000000    1.198922     22      23      24
     9 H      -0.100197    7.558905    4.702263      -0.053022    4.000000    2.488331     25      26      27
    10 H       4.022464    7.558904    2.438568       2.128596    4.000000    1.290435     28      29      30
    11 H       4.122633    7.558904   -2.265787       2.181603    4.000000   -1.199003     31      32      33
    12 H       0.100099    7.558905   -4.703093       0.052970    4.000000   -2.488770     34      35      36
 --------------------------------------------------------------------------------------------------------------

 Number of elements of the density matrix on this node (used, total):      1962     12246



 ===========================================
 Numerical Integration : Fuzzy Cells (Becke)
 ===========================================
  
 Becke grid quality: NORMAL         
  
 Lebedev angular grid order:             min:  11 max:  23
 Nr. of radial points:                   min:  46 max:  52

 Total nr. of points:      75660
 Nr. of blocks:              592
 Block length:               128
 Nr. of dummy points:        116


 Test of Precision of the Numerical Integration Grid
 ===================================================

 Integral of the Total Core Density:                   0.00000000000000



 ========================
 Density Fitting (zlmFit)
 ========================
  
 ZlmFit Fit Quality: NORMAL         
  
 Max L-expansion:                        min:   5 max:   6
 Nr. of radial interpolation points:     min:  36 max:  48



 =====
 S C F  ***  ScaSCF  ***
 =====
  
 Initial density matrix is taken from previous geometry

 CYCLE    1
 SCF Error: norm([F,P])=      0.097212083653, max([F,P])=      0.023423985282
 orbitals (Q,E):
 ---------------
 A :12...31          ( 2.00    -0.4883)  ( 2.00    -0.4280)  ( 2.00    -0.4170)  ( 2.00    -0.3917)
                     ( 2.00    -0.3913)  ( 2.00    -0.3464)  ( 2.00    -0.3199)  ( 2.00    -0.3196)
                     ( 2.00    -0.2469)  ( 2.00    -0.2467)  ( 0.00    -0.0596)  ( 0.00    -0.0593)
                     ( 0.00    -0.0044)  ( 0.00     0.0217)  ( 0.00     0.0218)  ( 0.00     0.0543)
                     ( 0.00     0.0544)  ( 0.00     0.0814)  ( 0.00     0.0900)  ( 0.00     0.1348)

 CYCLE    2
  SDIIS (wt  0.000):  0.0217  0.9783
 A-DIIS (wt  1.000):  0.0000  1.0000
  DIIS coefficients:  0.0000  1.0000
 SCF Error: norm([F,P])=      0.012868413734, max([F,P])=      0.001434137189
 orbitals (Q,E):
 ---------------
 A :12...22          ( 2.00    -0.4778)  ( 2.00    -0.4172)  ( 2.00    -0.4052)  ( 2.00    -0.3813)
                     ( 2.00    -0.3812)  ( 2.00    -0.3357)  ( 2.00    -0.3090)  ( 2.00    -0.3089)
                     ( 2.00    -0.2362)  ( 2.00    -0.2359)  ( 0.00    -0.0488)

 CYCLE    3
  SDIIS (wt  0.000):  0.0034  0.5894  0.4072
 A-DIIS (wt  1.000):  0.0000  0.6271  0.3729
  DIIS coefficients:  0.0000  0.6271  0.3729
 SCF Error: norm([F,P])=      0.017834785085, max([F,P])=      0.002625421909
 orbitals (Q,E):
 ---------------
 A :12...22          ( 2.00    -0.4790)  ( 2.00    -0.4182)  ( 2.00    -0.4069)  ( 2.00    -0.3826)
                     ( 2.00    -0.3823)  ( 2.00    -0.3371)  ( 2.00    -0.3103)  ( 2.00    -0.3102)
                     ( 2.00    -0.2374)  ( 2.00    -0.2374)  ( 0.00    -0.0501)

 CYCLE    4
  SDIIS (wt  1.000):  0.2933  0.2381  0.4686
  DIIS coefficients:  0.2933  0.2381  0.4686
 SCF Error: norm([F,P])=      0.005801483253, max([F,P])=      0.000918267733
 orbitals (Q,E):
 ---------------
 A :12...22          ( 2.00    -0.4794)  ( 2.00    -0.4187)  ( 2.00    -0.4074)  ( 2.00    -0.3829)
                     ( 2.00    -0.3827)  ( 2.00    -0.3374)  ( 2.00    -0.3108)  ( 2.00    -0.3106)
                     ( 2.00    -0.2378)  ( 2.00    -0.2378)  ( 0.00    -0.0505)

 CYCLE    5
  SDIIS (wt  1.000):  0.1381  0.1021  0.2858  0.4740
  DIIS coefficients:  0.1381  0.1021  0.2858  0.4740
 SCF Error: norm([F,P])=      0.002090970642, max([F,P])=      0.000305295827
 orbitals (Q,E):
 ---------------
 A :12...22          ( 2.00    -0.4793)  ( 2.00    -0.4187)  ( 2.00    -0.4073)  ( 2.00    -0.3828)
                     ( 2.00    -0.3826)  ( 2.00    -0.3373)  ( 2.00    -0.3107)  ( 2.00    -0.3105)
                     ( 2.00    -0.2377)  ( 2.00    -0.2377)  ( 0.00    -0.0504)

 CYCLE    6
  SDIIS (wt  1.000):  0.0332  0.0161  0.0807  0.2552  0.6148
  DIIS coefficients:  0.0332  0.0161  0.0807  0.2552  0.6148
 SCF Error: norm([F,P])=      0.000531711715, max([F,P])=      0.000064640616
 orbitals (Q,E):
 ---------------
 A :12...22          ( 2.00    -0.4794)  ( 2.00    -0.4187)  ( 2.00    -0.4074)  ( 2.00    -0.3829)
                     ( 2.00    -0.3826)  ( 2.00    -0.3374)  ( 2.00    -0.3108)  ( 2.00    -0.3106)
                     ( 2.00    -0.2378)  ( 2.00    -0.2377)  ( 0.00    -0.0505)

 CYCLE    7
  SDIIS (wt  1.000):  0.0129  0.0036  0.0353  0.1419  0.3992  0.4071
  DIIS coefficients:  0.0129  0.0036  0.0353  0.1419  0.3992  0.4071
 SCF Error: norm([F,P])=      0.000175694651, max([F,P])=      0.000027099597
 orbitals (Q,E):
 ---------------
 A :12...22          ( 2.00    -0.4794)  ( 2.00    -0.4187)  ( 2.00    -0.4074)  ( 2.00    -0.3829)
                     ( 2.00    -0.3826)  ( 2.00    -0.3374)  ( 2.00    -0.3108)  ( 2.00    -0.3106)
                     ( 2.00    -0.2378)  ( 2.00    -0.2377)  ( 0.00    -0.0505)

 CYCLE    8
  SDIIS (wt  1.000):  0.0006 -0.0002  0.0016  0.0093  0.0283  0.0793  0.8811
  DIIS coefficients:  0.0006 -0.0002  0.0016  0.0093  0.0283  0.0793  0.8811
 SCF Error: norm([F,P])=      0.000012266769, max([F,P])=      0.000001983585
 orbitals (Q,E):
 ---------------
 A :12...22          ( 2.00    -0.4794)  ( 2.00    -0.4188)  ( 2.00    -0.4074)  ( 2.00    -0.3829)
                     ( 2.00    -0.3826)  ( 2.00    -0.3374)  ( 2.00    -0.3108)  ( 2.00    -0.3106)
                     ( 2.00    -0.2378)  ( 2.00    -0.2377)  ( 0.00    -0.0505)

 CYCLE    9
  SDIIS (wt  1.000):  0.0002 -0.0002  0.0005  0.0038  0.0116  0.0447  0.5704  0.3690
  DIIS coefficients:  0.0002 -0.0002  0.0005  0.0038  0.0116  0.0447  0.5704  0.3690
 SCF Error: norm([F,P])=      0.000008126013, max([F,P])=      0.000001705537
 orbitals (Q,E):
 ---------------
 A :12...22          ( 2.00    -0.4794)  ( 2.00    -0.4188)  ( 2.00    -0.4074)  ( 2.00    -0.3829)
                     ( 2.00    -0.3826)  ( 2.00    -0.3374)  ( 2.00    -0.3108)  ( 2.00    -0.3106)
                     ( 2.00    -0.2378)  ( 2.00    -0.2377)  ( 0.00    -0.0505)

 CYCLE   10
  SDIIS (wt  1.000):  0.0000 -0.0000  0.0000  0.0007  0.0017  0.0089  0.1188  0.1238  0.7460
  DIIS coefficients:  0.0000 -0.0000  0.0000  0.0007  0.0017  0.0089  0.1188  0.1238  0.7460
 SCF Error: norm([F,P])=      0.000000814261, max([F,P])=      0.000000142013
 orbitals (Q,E):
 ---------------
 A :12...22          ( 2.00    -0.4794)  ( 2.00    -0.4188)  ( 2.00    -0.4074)  ( 2.00    -0.3829)
                     ( 2.00    -0.3826)  ( 2.00    -0.3374)  ( 2.00    -0.3108)  ( 2.00    -0.3106)
                     ( 2.00    -0.2378)  ( 2.00    -0.2377)  ( 0.00    -0.0505)

 SCF CONVERGED

 CYCLE   11
 *** Using FIT density in Focky
  SDIIS (wt  1.000):  0.0000 -0.0000  0.0000  0.0001  0.0001  0.0007  0.0114  0.0246  0.2685  0.6947
  DIIS coefficients:  0.0000 -0.0000  0.0000  0.0001  0.0001  0.0007  0.0114  0.0246  0.2685  0.6947
 SCF Error: norm([F,P])=      0.000000215575, max([F,P])=      0.000000034436
 orbitals (Q,E):
 ---------------
 A :12...31          ( 2.00    -0.4794)  ( 2.00    -0.4188)  ( 2.00    -0.4074)  ( 2.00    -0.3829)
                     ( 2.00    -0.3826)  ( 2.00    -0.3374)  ( 2.00    -0.3108)  ( 2.00    -0.3106)
                     ( 2.00    -0.2378)  ( 2.00    -0.2377)  ( 0.00    -0.0505)  ( 0.00    -0.0504)
                     ( 0.00     0.0023)  ( 0.00     0.0280)  ( 0.00     0.0281)  ( 0.00     0.0609)
                     ( 0.00     0.0609)  ( 0.00     0.0905)  ( 0.00     0.0965)  ( 0.00     0.1422)


 Fit test: (difference of exact and fit density, squared integrated, result summed over spins)
         SCF:                                          0.00048756906506

 Gross Charges per Atom (Z minus electrons)
 ==========================================
             0.1761    0.1765    0.1766    0.1762    0.1767    0.1764   -0.1768   -0.1766   -0.1760   -0.1769
            -0.1765   -0.1757
 Net Total: -0.00000000



 =================================================================
 M U L T I P O L E   D E R I V E D   C H A R G E   A N A L Y S I S
 =================================================================

 See: M. Swart, P.Th. van Duijnen, J.G. Snijders, J.Comput.Chem., (2001), p. 79-88.

 --------------------------------------- 
 Multipole derived atomic charges (a.u.)
 --------------------------------------- 

        Atom    Level:     MDC-m        MDC-d        MDC-q
 ---------------------------------------------------------
     1     C            0.061056     0.034937    -0.125970
     2     C            0.060713     0.034552    -0.128507
     3     C            0.060880     0.034725    -0.128175
     4     C            0.061141     0.034983    -0.126386
     5     C            0.060727     0.034535    -0.128357
     6     C            0.060862     0.034730    -0.128337
     7     H           -0.060866    -0.034384     0.128114
     8     H           -0.060904    -0.034699     0.127812
     9     H           -0.060934    -0.035115     0.127111
    10     H           -0.060928    -0.034459     0.128006
    11     H           -0.060838    -0.034619     0.127927
    12     H           -0.060909    -0.035186     0.126762
 *** Using NEW gradient routines ***


 Geometry CYCLE 2
 ==============

 Energy gradients wrt nuclear displacements
 ==========================================

     Atom      Cartesian (a.u./angstrom)
                 X         Y         Z
 ----------------------------------------
     1 C     0.000125  0.000000 -0.001993
     2 C    -0.003045  0.000000 -0.002164
     3 C    -0.003084 -0.000000  0.001892
     4 C    -0.000187 -0.000000  0.003705
     5 C     0.002976  0.000000  0.001902
     6 C     0.003181 -0.000000 -0.002156
     7 H     0.002481 -0.000000  0.001546
     8 H     0.002620 -0.000000 -0.001471
     9 H     0.000045  0.000000 -0.002988
    10 H    -0.002480  0.000000 -0.001561
    11 H    -0.002602 -0.000000  0.001451
    12 H    -0.000028 -0.000000  0.001836
 ----------------------------------------

 dE(predicted):    -0.14273E-02, dE(actual):    -0.15459E-02, Trust radius:    0.692820, all in a.u.
 
----------------------------------------------------------------------
Geometry Convergence after Step   2       (Hartree/Angstrom,Angstrom)
----------------------------------------------------------------------
current energy                               -2.74480790 Hartree
energy change                      -0.00154590     0.00100000    F
constrained gradient max            0.00370473     0.00100000    F
constrained gradient rms            0.00182100     0.00066667    F
gradient max                        0.00370473
gradient rms                        0.00182100
cart. step max                      0.00172258     0.01000000    T
cart. step rms                      0.00072678     0.00666667    T
 


 Coordinates (Cartesian)
 =======================

     Atom                    bohr                                 angstrom                 Geometric Variables
                   X           Y           Z              X           Y           Z       (0:frozen, *:LT par.)
 --------------------------------------------------------------------------------------------------------------
     1 C       0.056102    7.558905   -2.642928       0.029688    4.000000   -1.398577      1       2       3
     2 C      -2.261984    7.558904   -1.370679      -1.196990    4.000000   -0.725332      4       5       6
     3 C      -2.318094    7.558905    1.273130      -1.226683    4.000000    0.673711      7       8       9
     4 C      -0.056109    7.558905    2.643061      -0.029692    4.000000    1.398648     10      11      12
     5 C       2.261917    7.558904    1.370642       1.196955    4.000000    0.725313     13      14      15
     6 C       2.318178    7.558905   -1.273176       1.226727    4.000000   -0.673736     16      17      18
     7 H      -4.025379    7.558904   -2.440543      -2.130139    4.000000   -1.291480     19      20      21
     8 H      -4.125500    7.558905    2.267286      -2.183120    4.000000    1.199796     22      23      24
     9 H      -0.100064    7.558905    4.705519      -0.052952    4.000000    2.490053     25      26      27
    10 H       4.025346    7.558904    2.440534       2.130122    4.000000    1.291475     28      29      30
    11 H       4.125558    7.558905   -2.267286       2.183151    4.000000   -1.199796     31      32      33
    12 H       0.100030    7.558905   -4.705559       0.052934    4.000000   -2.490074     34      35      36
 --------------------------------------------------------------------------------------------------------------

 Number of elements of the density matrix on this node (used, total):      1962     12246



 ===========================================
 Numerical Integration : Fuzzy Cells (Becke)
 ===========================================
  
 Becke grid quality: NORMAL         
  
 Lebedev angular grid order:             min:  11 max:  23
 Nr. of radial points:                   min:  46 max:  52

 Total nr. of points:      75660
 Nr. of blocks:              592
 Block length:               128
 Nr. of dummy points:        116


 Test of Precision of the Numerical Integration Grid
 ===================================================

 Integral of the Total Core Density:                   0.00000000000000



 ========================
 Density Fitting (zlmFit)
 ========================
  
 ZlmFit Fit Quality: NORMAL         
  
 Max L-expansion:                        min:   5 max:   6
 Nr. of radial interpolation points:     min:  36 max:  48



 =====
 S C F  ***  ScaSCF  ***
 =====
  
 Initial density matrix is taken from previous geometry

 CYCLE    1
 SCF Error: norm([F,P])=      0.012643775209, max([F,P])=      0.003247078589
 orbitals (Q,E):
 ---------------
 A :12...31          ( 2.00    -0.4800)  ( 2.00    -0.4190)  ( 2.00    -0.4084)  ( 2.00    -0.3835)
                     ( 2.00    -0.3833)  ( 2.00    -0.3384)  ( 2.00    -0.3114)  ( 2.00    -0.3113)
                     ( 2.00    -0.2387)  ( 2.00    -0.2386)  ( 0.00    -0.0512)  ( 0.00    -0.0511)
                     ( 0.00     0.0014)  ( 0.00     0.0272)  ( 0.00     0.0273)  ( 0.00     0.0601)
                     ( 0.00     0.0601)  ( 0.00     0.0898)  ( 0.00     0.0955)  ( 0.00     0.1414)

 CYCLE    2
  SDIIS (wt  0.000):  0.0209  0.9791
 A-DIIS (wt  1.000):  0.0000  1.0000
  DIIS coefficients:  0.0000  1.0000
 SCF Error: norm([F,P])=      0.001658224469, max([F,P])=      0.000241329364
 orbitals (Q,E):
 ---------------
 A :12...22          ( 2.00    -0.4791)  ( 2.00    -0.4180)  ( 2.00    -0.4075)  ( 2.00    -0.3826)
                     ( 2.00    -0.3825)  ( 2.00    -0.3376)  ( 2.00    -0.3105)  ( 2.00    -0.3104)
                     ( 2.00    -0.2378)  ( 2.00    -0.2378)  ( 0.00    -0.0503)

 CYCLE    3
  SDIIS (wt  0.000):  0.0011  0.4655  0.5334
 A-DIIS (wt  1.000):  0.0000  0.4239  0.5761
  DIIS coefficients:  0.0000  0.4239  0.5761
 SCF Error: norm([F,P])=      0.001459519416, max([F,P])=      0.000194937760
 orbitals (Q,E):
 ---------------
 A :12...22          ( 2.00    -0.4791)  ( 2.00    -0.4181)  ( 2.00    -0.4075)  ( 2.00    -0.3827)
                     ( 2.00    -0.3824)  ( 2.00    -0.3375)  ( 2.00    -0.3105)  ( 2.00    -0.3104)
                     ( 2.00    -0.2379)  ( 2.00    -0.2378)  ( 0.00    -0.0504)

 CYCLE    4
  SDIIS (wt  1.000):  0.2799  0.4094  0.3107
  DIIS coefficients:  0.2799  0.4094  0.3107
 SCF Error: norm([F,P])=      0.000949008553, max([F,P])=      0.000169514609
 orbitals (Q,E):
 ---------------
 A :12...22          ( 2.00    -0.4791)  ( 2.00    -0.4181)  ( 2.00    -0.4075)  ( 2.00    -0.3827)
                     ( 2.00    -0.3825)  ( 2.00    -0.3376)  ( 2.00    -0.3105)  ( 2.00    -0.3104)
                     ( 2.00    -0.2379)  ( 2.00    -0.2378)  ( 0.00    -0.0504)

 CYCLE    5
  SDIIS (wt  1.000):  0.1452  0.2181  0.1809  0.4558
  DIIS coefficients:  0.1452  0.2181  0.1809  0.4558
 SCF Error: norm([F,P])=      0.000116474193, max([F,P])=      0.000022907098
 orbitals (Q,E):
 ---------------
 A :12...22          ( 2.00    -0.4791)  ( 2.00    -0.4181)  ( 2.00    -0.4075)  ( 2.00    -0.3827)
                     ( 2.00    -0.3825)  ( 2.00    -0.3376)  ( 2.00    -0.3105)  ( 2.00    -0.3105)
                     ( 2.00    -0.2379)  ( 2.00    -0.2378)  ( 0.00    -0.0504)

 CYCLE    6
  SDIIS (wt  1.000):  0.0185  0.0272  0.0267  0.2896  0.6380
  DIIS coefficients:  0.0185  0.0272  0.0267  0.2896  0.6380
 SCF Error: norm([F,P])=      0.000047101459, max([F,P])=      0.000009971819
 orbitals (Q,E):
 ---------------
 A :12...22          ( 2.00    -0.4791)  ( 2.00    -0.4181)  ( 2.00    -0.4075)  ( 2.00    -0.3827)
                     ( 2.00    -0.3825)  ( 2.00    -0.3376)  ( 2.00    -0.3105)  ( 2.00    -0.3105)
                     ( 2.00    -0.2379)  ( 2.00    -0.2378)  ( 0.00    -0.0504)

 CYCLE    7
  SDIIS (wt  1.000):  0.0120  0.0171  0.0158  0.1572  0.3657  0.4322
  DIIS coefficients:  0.0120  0.0171  0.0158  0.1572  0.3657  0.4322
 SCF Error: norm([F,P])=      0.000012142375, max([F,P])=      0.000001580064
 orbitals (Q,E):
 ---------------
 A :12...22          ( 2.00    -0.4791)  ( 2.00    -0.4181)  ( 2.00    -0.4075)  ( 2.00    -0.3827)
                     ( 2.00    -0.3825)  ( 2.00    -0.3376)  ( 2.00    -0.3105)  ( 2.00    -0.3105)
                     ( 2.00    -0.2379)  ( 2.00    -0.2378)  ( 0.00    -0.0504)

 CYCLE    8
  SDIIS (wt  1.000):  0.0009  0.0013  0.0011  0.0130  0.0419  0.1586  0.7832
  DIIS coefficients:  0.0009  0.0013  0.0011  0.0130  0.0419  0.1586  0.7832
 SCF Error: norm([F,P])=      0.000001985234, max([F,P])=      0.000000234631
 orbitals (Q,E):
 ---------------
 A :12...22          ( 2.00    -0.4791)  ( 2.00    -0.4181)  ( 2.00    -0.4075)  ( 2.00    -0.3827)
                     ( 2.00    -0.3825)  ( 2.00    -0.3376)  ( 2.00    -0.3105)  ( 2.00    -0.3105)
                     ( 2.00    -0.2379)  ( 2.00    -0.2378)  ( 0.00    -0.0504)

 SCF CONVERGED

 CYCLE    9
 *** Using FIT density in Focky
  SDIIS (wt  1.000):  0.0002  0.0002  0.0001  0.0036  0.0156  0.0900  0.5032  0.3872
  DIIS coefficients:  0.0002  0.0002  0.0001  0.0036  0.0156  0.0900  0.5032  0.3872
 SCF Error: norm([F,P])=      0.000000905223, max([F,P])=      0.000000197709
 orbitals (Q,E):
 ---------------
 A :12...31          ( 2.00    -0.4791)  ( 2.00    -0.4181)  ( 2.00    -0.4075)  ( 2.00    -0.3827)
                     ( 2.00    -0.3825)  ( 2.00    -0.3376)  ( 2.00    -0.3105)  ( 2.00    -0.3105)
                     ( 2.00    -0.2379)  ( 2.00    -0.2378)  ( 0.00    -0.0504)  ( 0.00    -0.0503)
                     ( 0.00     0.0020)  ( 0.00     0.0278)  ( 0.00     0.0279)  ( 0.00     0.0607)
                     ( 0.00     0.0608)  ( 0.00     0.0907)  ( 0.00     0.0961)  ( 0.00     0.1421)


 Fit test: (difference of exact and fit density, squared integrated, result summed over spins)
         SCF:                                          0.00048707022311

 Gross Charges per Atom (Z minus electrons)
 ==========================================
             0.1754    0.1757    0.1756    0.1754    0.1757    0.1755   -0.1759   -0.1757   -0.1751   -0.1759
            -0.1757   -0.1750
 Net Total:  0.00000000



 =================================================================
 M U L T I P O L E   D E R I V E D   C H A R G E   A N A L Y S I S
 =================================================================

 See: M. Swart, P.Th. van Duijnen, J.G. Snijders, J.Comput.Chem., (2001), p. 79-88.

 --------------------------------------- 
 Multipole derived atomic charges (a.u.)
 --------------------------------------- 

        Atom    Level:     MDC-m        MDC-d        MDC-q
 ---------------------------------------------------------
     1     C            0.060868     0.034932    -0.125954
     2     C            0.060452     0.034494    -0.128059
     3     C            0.060593     0.034643    -0.127833
     4     C            0.060874     0.034936    -0.126014
     5     C            0.060452     0.034491    -0.128027
     6     C            0.060592     0.034643    -0.127870
     7     H           -0.060619    -0.034353     0.127715
     8     H           -0.060620    -0.034636     0.127448
     9     H           -0.060674    -0.035071     0.126739
    10     H           -0.060632    -0.034372     0.127686
    11     H           -0.060606    -0.034616     0.127480
    12     H           -0.060681    -0.035091     0.126689
 *** Using NEW gradient routines ***


 Geometry CYCLE 3
 ==============

 Energy gradients wrt nuclear displacements
 ==========================================

     Atom      Cartesian (a.u./angstrom)
                 X         Y         Z
 ----------------------------------------
     1 C    -0.000021  0.000000  0.000095
     2 C    -0.000108  0.000000 -0.000177
     3 C    -0.000065  0.000000  0.000110
     4 C     0.000016 -0.000000  0.000085
     5 C     0.000039  0.000000  0.000119
     6 C     0.000140 -0.000000 -0.000156
     7 H     0.000144 -0.000000  0.000099
     8 H     0.000143 -0.000000 -0.000086
     9 H     0.000003 -0.000000 -0.000168
    10 H    -0.000128  0.000000 -0.000087
    11 H    -0.000159 -0.000000  0.000100
    12 H    -0.000003  0.000000  0.000066
 ----------------------------------------
 
---------------------------------------------------------
Geometry Convergence after Step   3       ** CONVERGED **
---------------------------------------------------------
current energy                               -2.74482864 Hartree
energy change                      -0.00002074     0.00100000    T
constrained gradient max            0.00017695     0.00100000    T
constrained gradient rms            0.00008920     0.00066667    T
gradient max                        0.00017695
gradient rms                        0.00008920
cart. step max                      0.00016357     0.01000000    T
cart. step rms                      0.00006243     0.00666667    T
 

 Number of elements of the density matrix on this node (used, total):      1962     12246



 ===========================================
 Numerical Integration : Fuzzy Cells (Becke)
 ===========================================
  
 Becke grid quality: NORMAL         
  
 Lebedev angular grid order:             min:  11 max:  23
 Nr. of radial points:                   min:  46 max:  52

 Total nr. of points:      75660
 Nr. of blocks:              592
 Block length:               128
 Nr. of dummy points:        116


 Test of Precision of the Numerical Integration Grid
 ===================================================

 Integral of the Total Core Density:                   0.00000000000000



 ========================
 Density Fitting (zlmFit)
 ========================
  
 ZlmFit Fit Quality: NORMAL         
  
 Max L-expansion:                        min:   5 max:   6
 Nr. of radial interpolation points:     min:  36 max:  48



 =====
 S C F  ***  ScaSCF  ***
 =====
  
 Initial density matrix is taken from previous geometry

 CYCLE    1
 SCF Error: norm([F,P])=      0.000000107315, max([F,P])=      0.000000032710
 orbitals (Q,E):
 ---------------
 A :12...31          ( 2.00    -0.4791)  ( 2.00    -0.4181)  ( 2.00    -0.4075)  ( 2.00    -0.3827)
                     ( 2.00    -0.3825)  ( 2.00    -0.3376)  ( 2.00    -0.3105)  ( 2.00    -0.3105)
                     ( 2.00    -0.2379)  ( 2.00    -0.2378)  ( 0.00    -0.0504)  ( 0.00    -0.0503)
                     ( 0.00     0.0020)  ( 0.00     0.0278)  ( 0.00     0.0279)  ( 0.00     0.0607)
                     ( 0.00     0.0608)  ( 0.00     0.0907)  ( 0.00     0.0961)  ( 0.00     0.1421)

 CYCLE    2
  SDIIS (wt  0.000):  0.6773  0.3227
 A-DIIS (wt  1.000):  0.0000  1.0000
  DIIS coefficients:  0.0000  1.0000
 SCF Error: norm([F,P])=      0.000000216974, max([F,P])=      0.000000071722
 orbitals (Q,E):
 ---------------
 A :12...22          ( 2.00    -0.4791)  ( 2.00    -0.4181)  ( 2.00    -0.4075)  ( 2.00    -0.3827)
                     ( 2.00    -0.3825)  ( 2.00    -0.3376)  ( 2.00    -0.3105)  ( 2.00    -0.3105)
                     ( 2.00    -0.2379)  ( 2.00    -0.2378)  ( 0.00    -0.0504)

 SCF CONVERGED

 CYCLE    3
1
 ***************************************************************************************************



                                                *******************
                                                *  R E S U L T S  *
                                                *******************
  
 *** Using FIT density in Focky
  SDIIS (wt  0.000):  0.3429  0.5042  0.1528
 A-DIIS (wt  1.000):  0.0000  0.7432  0.2568
  DIIS coefficients:  0.0000  0.7432  0.2568
 SCF Error: norm([F,P])=      0.000000508973, max([F,P])=      0.000000167091

 Orbital Energies, per Irrep and Spin:
 ======================================
                        Occup              E (au)              E (eV)       Diff (eV) with prev. cycle
                        -----      --------------------        ------       --------------------------
 A
              12        2.000     -0.47913491303696E+00       -13.038               1.08E-07
              13        2.000     -0.41811585835161E+00       -11.378               6.53E-08
              14        2.000     -0.40754748943903E+00       -11.090               1.62E-07
              15        2.000     -0.38268586334665E+00       -10.413               1.86E-07
              16        2.000     -0.38247905587040E+00       -10.408               4.95E-08
              17        2.000     -0.33757740922063E+00        -9.186               1.42E-07
              18        2.000     -0.31054807518676E+00        -8.450               1.11E-07
              19        2.000     -0.31045960032909E+00        -8.448               1.15E-07
              20        2.000     -0.23787365599970E+00        -6.473               2.07E-07
              21        2.000     -0.23782650754483E+00        -6.472               6.39E-08
              22        0.000     -0.50392723610479E-01        -1.371
              23        0.000     -0.50327195002675E-01        -1.369
              24        0.000      0.20368889403016E-02         0.055
              25        0.000      0.27840206320110E-01         0.758
              26        0.000      0.27864027529806E-01         0.758
              27        0.000      0.60712876998964E-01         1.652
              28        0.000      0.60764921300118E-01         1.653
              29        0.000      0.90656694697912E-01         2.467
              30        0.000      0.96121578140634E-01         2.616
              31        0.000      0.14212348590422E+00         3.867
  
 HOMO :       21 A                -0.23782650754483E+00
 LUMO :       22 A                -0.50392723610479E-01
  


 All Electron Calculation, thus no Orbital Energies of the Core Orbitals are calculated


 Fit test: (difference of exact and fit density, squared integrated, result summed over spins)
         Sum-of-Fragments:                             0.00000000048365
         Orthogonalized Fragments:                     0.00013299039945
         SCF:                                          0.00048707022285



 ==========================
 Electron Density at Nuclei
 ==========================
  
 The electron density is calculated at points on a small sphere around the center of a nucleus.
 The printed electron density is the average electron density on these points.
 The radius of the sphere is the printed approximate finite nuclear radius.

         Atom        Nuclear Radius (Angstrom)             Electron Density (a.u.)
         ----        -------------------------             -----------------------
     1)   C                 0.0000320678                              126.51444
     2)   C                 0.0000320678                              126.51569
     3)   C                 0.0000320678                              126.51464
     4)   C                 0.0000320678                              126.51442
     5)   C                 0.0000320678                              126.51571
     6)   C                 0.0000320678                              126.51461
     7)   H                 0.0000181514                                0.49873
     8)   H                 0.0000181514                                0.49868
     9)   H                 0.0000181514                                0.49870
    10)   H                 0.0000181514                                0.49872
    11)   H                 0.0000181514                                0.49869
    12)   H                 0.0000181514                                0.49865



 =======================================
 M U L L I K E N   P O P U L A T I O N S
 =======================================
  
 The survey below gives for each atom:
 a) the total charge (Z minus electrons)
 b) the net spin polarization (nr of electrons spin-A minus spin-B)
 c) for each spin the atomic electron valence density (integrated) per L-value.

 Atom              Charge    Spin density          S         P         D         F
 ----              ------    ------------       ------    ------    ------    ------
 1 C               0.1754                       3.0649    2.6987    0.0610    0.0000
 2 C               0.1757                       3.0649    2.6984    0.0610    0.0000
 3 C               0.1756                       3.0650    2.6985    0.0610    0.0000
 4 C               0.1754                       3.0649    2.6988    0.0610    0.0000
 5 C               0.1757                       3.0650    2.6984    0.0610    0.0000
 6 C               0.1755                       3.0650    2.6986    0.0610    0.0000
 7 H              -0.1759                       1.1045    0.0715    0.0000    0.0000
 8 H              -0.1757                       1.1042    0.0714    0.0000    0.0000
 9 H              -0.1751                       1.1037    0.0714    0.0000    0.0000
 10 H             -0.1759                       1.1045    0.0714    0.0000    0.0000
 11 H             -0.1757                       1.1042    0.0714    0.0000    0.0000
 12 H             -0.1750                       1.1037    0.0714    0.0000    0.0000

 Populations of individual BAS functions
 ----------------------------------------
 1 C            0.4869  1.5144  0.2298  0.8872 -0.0535 -0.1033  0.1475 -0.2378  0.8055  0.6780
                0.8823  0.2001  0.1366  0.1899  0.0268  0.0122  0.0174 -0.0175  0.0040  0.0181
 2 C            0.4870  1.5144  0.2297  0.8874 -0.0535 -0.2025  0.1473 -0.1395  0.8621  0.6781
                0.8264  0.1926  0.1366  0.1973  0.0181  0.0062  0.0220 -0.0176  0.0100  0.0222
 3 C            0.4870  1.5144  0.2298  0.8873 -0.0535 -0.2072  0.1474 -0.1345  0.8647  0.6780
                0.8235  0.1922  0.1366  0.1977  0.0180  0.0059  0.0216 -0.0175  0.0103  0.0227
 4 C            0.4869  1.5144  0.2298  0.8872 -0.0535 -0.1033  0.1474 -0.2378  0.8054  0.6780
                0.8823  0.2001  0.1366  0.1899  0.0268  0.0122  0.0174 -0.0175  0.0040  0.0181
 5 C            0.4870  1.5144  0.2297  0.8874 -0.0535 -0.2025  0.1473 -0.1396  0.8621  0.6781
                0.8264  0.1926  0.1366  0.1973  0.0181  0.0062  0.0220 -0.0175  0.0100  0.0222
 6 C            0.4870  1.5144  0.2298  0.8873 -0.0535 -0.2072  0.1474 -0.1344  0.8647  0.6781
                0.8235  0.1922  0.1366  0.1977  0.0180  0.0059  0.0216 -0.0175  0.0103  0.0227
 7 H            0.2097  0.5759  0.3188  0.0288  0.0217  0.0209
 8 H            0.2093  0.5761  0.3188  0.0295  0.0217  0.0202
 9 H            0.2086  0.5761  0.3190  0.0162  0.0217  0.0334
 10 H           0.2098  0.5759  0.3188  0.0288  0.0217  0.0209
 11 H           0.2093  0.5761  0.3188  0.0295  0.0217  0.0202
 12 H           0.2086  0.5762  0.3189  0.0162  0.0217  0.0334

 Gross Charges per Atom (Z minus electrons)
 ==========================================
             0.1754    0.1757    0.1756    0.1754    0.1757    0.1755   -0.1759   -0.1757   -0.1751   -0.1759
            -0.1757   -0.1750
 Net Total: -0.00000000


 Atom-Atom Population Matrix (off-diagonal elements not doubled)
 ===============================================================

     1 :     4.5229
     2 :     0.5417    4.5223
     3 :    -0.0106    0.5417    4.5224
     4 :    -0.0557   -0.0106    0.5418    4.5228
     5 :    -0.0106   -0.0555   -0.0107    0.5417    4.5223
     6 :     0.5418   -0.0107   -0.0555   -0.0106    0.5417    4.5224
     7 :    -0.0536    0.3939   -0.0535    0.0022    0.0041    0.0021    0.9821
     8 :     0.0022   -0.0535    0.3939   -0.0537    0.0022    0.0041   -0.0476    0.9818
     9 :     0.0041    0.0021   -0.0534    0.3939   -0.0534    0.0021   -0.0038   -0.0476    0.9808
    10 :     0.0022    0.0041    0.0021   -0.0536    0.3939   -0.0535    0.0015   -0.0038   -0.0476    0.9822
    11 :    -0.0537    0.0021    0.0041    0.0022   -0.0535    0.3939   -0.0038    0.0015   -0.0038   -0.0476
             0.9818
    12 :     0.3939   -0.0534    0.0021    0.0041    0.0021   -0.0534   -0.0476   -0.0038    0.0016   -0.0038
            -0.0476    0.9808



 =================================================
 H I R S H F E L D   C H A R G E   A N A L Y S I S
 =================================================
  
 For each fragment: the (numerical) integral of rho(scf) * rho(fragment)/rho(sum-of-fragments)
 (nuclear charges are included, electrons are counted negative)

 The fragments and their ordering are defined in the early G E O M E T R Y output section.
 If you use single-atom fragments, this usually implies that all atoms of the same
 chemical type are grouped together. This may not be the order in which you listed them
 in the input file!

    1  C                        -0.0463
    2  C                        -0.0463
    3  C                        -0.0463
    4  C                        -0.0463
    5  C                        -0.0463
    6  C                        -0.0463
    7  H                         0.0463
    8  H                         0.0463
    9  H                         0.0463
   10  H                         0.0463
   11  H                         0.0463
   12  H                         0.0462

 Sum of these charges (accuracy NumInt/Tails) =          -0.00005969



 =============================
 V O R O N O I   C H A R G E S
 =============================
  
 For each atom: the (numerical) integral of the total electronic charge density in its Voronoi cell,
 i.e. the region of space that is closer to that atom than to any other atom.
 (cf. Wigner-Seitz cells in crystals)

 Within the Voronoi cell the subintegrals over the atomic sphere and the remaining part are evaluated
 separately to give the numbers of electrons (negative charge) in these regions.
 The net total charge in the cell (including the nuclear charge) is also given.

 Values are provided for
    a) the Initial (sum-of-fragments) density
    b) the Orthogonalized-Fragments density
    c) the SCF density
    d) the Voronoi Deformation Density (VDD): the difference SCF-Initial for the complete atomic cell


  Atom                Initial                    OrthFrag                   SCF
             Sphere RestCell NetTotal   Sphere RestCell NetTotal   Sphere RestCell NetTotal      VDD
 -----       ------------------------   ------------------------   ------------------------    -----
    1 C      -2.269   -3.185    0.546   -2.452   -3.137    0.411   -2.303   -3.207    0.490   -0.056
    2 C      -2.269   -3.191    0.541   -2.452   -3.137    0.410   -2.303   -3.208    0.489   -0.051
    3 C      -2.269   -3.190    0.542   -2.452   -3.142    0.406   -2.303   -3.212    0.485   -0.056
    4 C      -2.269   -3.185    0.546   -2.452   -3.137    0.411   -2.303   -3.207    0.490   -0.056
    5 C      -2.269   -3.191    0.541   -2.452   -3.137    0.410   -2.303   -3.208    0.489   -0.051
    6 C      -2.269   -3.190    0.542   -2.452   -3.142    0.406   -2.303   -3.212    0.485   -0.056
    7 H      -0.075   -1.473   -0.548   -0.096   -1.318   -0.413   -0.109   -1.384   -0.493    0.055
    8 H      -0.075   -1.464   -0.539   -0.096   -1.309   -0.405   -0.109   -1.375   -0.484    0.055
    9 H      -0.075   -1.467   -0.541   -0.096   -1.313   -0.409   -0.109   -1.379   -0.488    0.053
   10 H      -0.075   -1.473   -0.548   -0.096   -1.318   -0.413   -0.109   -1.384   -0.493    0.055
   11 H      -0.075   -1.464   -0.539   -0.096   -1.309   -0.405   -0.109   -1.375   -0.484    0.055
   12 H      -0.075   -1.467   -0.541   -0.096   -1.313   -0.409   -0.109   -1.379   -0.488    0.053
 ---------------------------------------------------------------------------------------------------
 Total NetCharge:              -0.000                     -0.000                     -0.000    0.000
 (accuracy NumInt/Tails)

 Remark: the 'NetTotal' Voronoi charges often do not match the Mulliken and/or Hirshfeld charges very
 well. This is caused by the fact that chemically different atoms are not treated in accordance with
 their relative sizes. (Voronoi cells are defined by boundary planes halfway between the atoms.)
 However, the CHANGES in charge, comparing 'Initial' to 'SCF' for instance, do give a fair indication
 of the flow of charge caused by the relaxation from sum-of-fragments to self-consistency.

 Warning: the absolute accuracy of the VDD charges obtained using the Fuzzy Cells (Becke) integration
 scheme is much poorer than the one obtained with an 'equivalent' Voronoi integration grid. 



 =================================================================
 M U L T I P O L E   D E R I V E D   C H A R G E   A N A L Y S I S
 =================================================================

 This charge analysis uses the atomic multipoles (obtained from the fitted density) up to some level X,
 and reconstructs these multipoles exactly (up to level X) by distributing charges over all atoms.
 This is achieved by using Lagrange multipliers and a weight function to keep the multipoles local.

 Dummy atoms can be included (by setting INCDUM in MDC-block to 1) to obtain a fractional charge.
 This is generally useful and necessary only for small symmetrical molecules, when there are not
 enough degrees of freedom to reconstruct the multipoles.

 Since the atomic multipoles are reconstructed up to level X,
 the molecular multipoles are represented also up to level X.
 The recommended level is to reconstruct up to quadrupole : -> MDC-q charges.

 See: M. Swart, P.Th. van Duijnen, J.G. Snijders, J.Comput.Chem., (2001), p. 79-88.

 ------------------------------------------------------------- 
 Atomic electronic multipole moments from SCF equations (a.u.)
 ------------------------------------------------------------- 

   atom        charge        dip-x     dip-y     dip-z      quad-xx   quad-xy   quad-xz   quad-yy   quad-yz   quad-zz
 --------------------------------------------------------------------------------------------------------------------
    1 C      0.060868     0.000979  0.000000 -0.047127     0.468933  0.000000 -0.000778 -0.996615 -0.000000  0.527681
    2 C      0.060452    -0.042057  0.000000 -0.025625     0.508815  0.000000  0.014879 -0.993843 -0.000000  0.485028
    3 C      0.060593    -0.042459  0.000000  0.023424     0.512330 -0.000000 -0.014993 -0.994884 -0.000000  0.482554
    4 C      0.060874    -0.000986  0.000000  0.047165     0.468865 -0.000000 -0.000784 -0.996638 -0.000000  0.527773
    5 C      0.060452     0.042051 -0.000000  0.025621     0.508782  0.000000  0.014854 -0.993836 -0.000000  0.485054
    6 C      0.060592     0.042466  0.000000 -0.023428     0.512387  0.000000 -0.015017 -0.994897 -0.000000  0.482510
    7 H     -0.060619    -0.019462  0.000000 -0.011856     0.160319  0.000000  0.080506 -0.195372  0.000000  0.035054
    8 H     -0.060620    -0.019832 -0.000000  0.010960     0.170662  0.000000 -0.076613 -0.195677 -0.000000  0.025015
    9 H     -0.060674    -0.000491 -0.000000  0.022615    -0.038576  0.000000 -0.003871 -0.194892 -0.000000  0.233468
   10 H     -0.060632     0.019456  0.000000  0.011854     0.160314 -0.000000  0.080501 -0.195374 -0.000000  0.035060
   11 H     -0.060606     0.019840  0.000000 -0.010960     0.170671  0.000000 -0.076618 -0.195676 -0.000000  0.025005
   12 H     -0.060681     0.000488  0.000000 -0.022620    -0.038564 -0.000000 -0.003868 -0.194887  0.000000  0.233451

 --------------------------------------- 
 Multipole derived atomic charges (a.u.)
 --------------------------------------- 

 The MDC-m charges are just the Monopole terms in the multipole expansion, while for the MDC-d charges
 also the Dipoles are reconstructed. The usually preferred charges are the MDC-q charges.
 These reconstruct the Monopoles, Dipoles and Quadrupoles (both atomic AND molecular).

        Atom    Level:     MDC-m        MDC-d        MDC-q
 ---------------------------------------------------------
     1     C            0.060868     0.034932    -0.125954
     2     C            0.060452     0.034494    -0.128059
     3     C            0.060593     0.034643    -0.127833
     4     C            0.060874     0.034936    -0.126014
     5     C            0.060452     0.034491    -0.128027
     6     C            0.060592     0.034643    -0.127870
     7     H           -0.060619    -0.034353     0.127715
     8     H           -0.060620    -0.034636     0.127448
     9     H           -0.060674    -0.035071     0.126739
    10     H           -0.060632    -0.034372     0.127686
    11     H           -0.060606    -0.034616     0.127480
    12     H           -0.060681    -0.035091     0.126689

 ------------------------------------------------ 
 Average absolute deviations in atomic multipoles
 ------------------------------------------------ 

 Stated here are the average differences between the atomic multipoles
 and the reconstructed atomic multipoles (from the distributed charges).
 If these values are not zero, this means there are not enough degrees of freedom,
 to be able to reconstruct the atomic multipoles. (This usually happens only
 for small and/or highly symmetric molecules). If this is the case, one could add
 dummy atoms as extra point charges (and setting INCDUM in MDC-block to 1).

 Level:                                 MDC-d        MDC-q
 ---------------------------------------------------------
 Charge   (a.u.)                       0.0000       0.0000
 Dipole   (Debye)                      0.0000       0.0000
 Quad.    (a.u.)                       0.2134       0.0000

 --------------------------------------- 
 Represented molecular multipole moments
 --------------------------------------- 

 Given here are the Molecular multipole moments from the atomic charges, and from the Fit Density.
 Note that the atomic charges represent the latter, NOT the ones from the Exact density.

            Q (a.u.)             Dipole moment (Debye)                                          Quadrupole moment (a.u.)
                                 x         y         z              xx        xy        xz        yy        yz        zz
------------------------------------------------------------------------------------------------------------------------
MDC-m         0.0000        0.0000   -0.0000   -0.0000         -1.3798    0.0000   -0.0015    2.7587   -0.0001   -1.3789
MDC-d         0.0000       -0.0000    0.0000    0.0000         -0.7730   -0.0000    0.0070    1.5782    0.0002   -0.8052
MDC-q         0.0000       -0.0000    0.0000    0.0000          2.9009   -0.0000    0.0050   -5.7911    0.0002    2.8901
 
Fit.Dens.     0.0000       -0.0000    0.0000    0.0000          2.9009   -0.0000    0.0041   -5.7911    0.0002    2.8901



 =============
 Dipole Moment  ***  (Debye)  ***
 =============
  
 Vector   :        -0.00000505     -0.00000002      0.00003349
 Magnitude:         0.00003387

 This molecular dipole moment is calculated with analytic integration



 =========================================
 Quadrupole Moment (Buckingham convention)  ***  (a.u.)  ***
 =========================================
  
      quad-xx        quad-xy        quad-xz        quad-yy        quad-yz        quad-zz
      2.91236223    -0.00002255     0.00222466    -5.81941841     0.00014934     2.90705617

 This molecular quadrupole moment is calculated with analytic integration
1



 ===========================
 B O N D I N G   E N E R G Y  ***  (decomposition)  ***
 ===========================
  
*** IMPORTANT NOTE ***

The bond energy is computed as an energy difference between molecule and
fragments. In particular when the fragments are single atoms, they are usually
computed as SPHERICALLY SYMMETRIC and SPIN-RESTRICTED. Obviously, this usually
does NOT represent the true atomic groundstate.

To obtain the 'real' bond energy, (atomic) correction terms must be applied
for the true (multiplet) fragment ground state. See ref: E.J.Baerends,
V.Branchadell, M.Sodupe, Chem.Phys.Lett.265 (1997) 481

General theoretical background on the bond energy decomposition scheme used
here (Morokuma-Ziegler) can be found in the review paper:
F.M. Bickelhaupt and E.J. Baerends,
"Kohn-Sham Density Functional Theory: Predicting and Understanding Chemistry"
In: Rev. Comput. Chem.; Lipkowitz, K. B. and Boyd, D. B., Eds.;
Wiley-VCH: New York, 2000, Vol. 15, 1-86.

Symbols used in the Bickelhaupt-Baerends (BB) paper are given below to make
the direct connection to that paper, where detailed explanations can be found
on the meaning of the various terms.


                                                   hartree              eV         kcal/mol           kJ/mol
                                      --------------------     -----------       ----------      -----------

Pauli Repulsion
  Kinetic (Delta T^0):                  26.874549554520666        731.2937         16864.04         70559.12
  Delta V^Pauli Coulomb:               -12.355098086084634       -336.1993         -7752.94        -32438.31
  Delta V^Pauli LDA-XC:                 -3.460906069289967        -94.1760         -2171.75         -9086.61
  Delta V^Pauli GGA-Exchange:            0.167033519882830          4.5452           104.82           438.55
  Delta V^Pauli GGA-Correlation:        -0.035685448384084         -0.9711           -22.39           -93.69
                                      --------------------     -----------       ----------      -----------
  Total Pauli Repulsion:                11.189893470644810        304.4925          7021.76         29379.06
 (Total Pauli Repulsion =
  Delta E^Pauli in BB paper)

Steric Interaction
  Pauli Repulsion (Delta E^Pauli):      11.189893470644810        304.4925          7021.76         29379.06
  Electrostatic Interaction:            -2.111120133235930        -57.4465         -1324.75         -5542.75
 (Electrostatic Interaction =
  Delta V_elstat in the BB paper)
                                      --------------------     -----------       ----------      -----------
  Total Steric Interaction:              9.078773337408879        247.0460          5697.02         23836.32
 (Total Steric Interaction =
  Delta E^0 in the BB paper)

Orbital Interactions
  A:                                   -11.819881326252158       -321.6353         -7417.09        -31033.09
                                      --------------------     -----------       ----------      -----------
  Total Orbital Interactions:          -11.823373580624200       -321.7304         -7419.28        -31042.26

Alternative Decomposition Orb.Int.
  Kinetic:                             -24.315065606721511       -661.6466        -15257.94        -63839.20
  Coulomb:                              11.614996762689826        316.0601          7288.52         30495.17
  XC:                                    0.876695263407486         23.8561           550.13          2301.76
[...]
  Coulomb (Steric+OrbInt) Energy:       -0.740329717642329        -20.1454          -464.56         -1943.74
  XC Energy:                            -2.452862734383735        -66.7458         -1539.19         -6439.99
                                      --------------------     -----------       ----------      -----------
  Total Bonding Energy:                 -2.744828637462839        -74.6906         -1722.41         -7206.55


Correction terms (incorporated in energies above; only for test purposes):

1. Indication of fit-quality: 1st-order fit-correction used in the energy (hartree):   0.0009947921
2. Electrostatic (Fit correction):   0.0000000000



 =========================================
 F R A G M E N T   E N E R G Y   T E R M S  ***  (summed over all fragments)  ***
 =========================================
  

The energy terms below are (parts of) the Total Energy of the fragments from which the molecule
 is built.

Exchange and Correlation
  Exchange LDA:                        -27.460293242795373       -747.2326        -17231.60        -72096.99
  Exchange GGA:                         -3.707524597838070       -100.8869         -2326.51         -9734.10
  Correlation LDA:                      -2.479096325035842        -67.4596         -1555.66         -6508.87
  Correlation GGA:                       1.329268466402729         36.1712           834.13          3489.99
                                      --------------------     -----------       ----------      -----------
  Total XC:                            -32.317645699266556       -879.4079        -20279.63        -84849.97



 =======================================================================
 Electrostatic potential at the Nuclei due to electrons and other nuclei
 =======================================================================
  
         Atom                  Potential
         ----                  ---------
     1)   C                  14.76890184
     2)   C                  14.76879285
     3)   C                  14.76874413
     4)   C                  14.76890741
     5)   C                  14.76879004
     6)   C                  14.76874404
     7)   H                   1.10109011
     8)   H                   1.10118422
     9)   H                   1.10158196
    10)   H                   1.10109984
    11)   H                   1.10117361
    12)   H                   1.10158530
 
 
 ========================
 No memory problems found
 ========================
 
 Maximum number of active allocate calls:        1279
 
 *******************************************************************************

                             A D F   E X I T
 NORMAL TERMINATION



 =================
 Timing Statistics
 =================
  
 Total Used :                     CPU=       10.27      System=        0.22     Elapsed=       10.50

 Calls  Section                     ( Mean, Percentage )
 ---------------------------------------------------------------------------------------------------
     3  ><      ................      0.00    0.02             0.00    0.00             0.00    0.02
     1  INIT    ................      0.40    3.93             0.01    5.52             0.42    3.97
     1  GEOMET  ................      0.03    0.26             0.01    5.61             0.04    0.37
     1  FRAGM   ................      0.01    0.10             0.02    7.36             0.03    0.25
     1  INPUTA  ................      0.00    0.02             0.00    0.03             0.00    0.02
     1  ATDEN   ................      0.00    0.03             0.00    0.06             0.00    0.03
     4  MAINSY  ................      0.02    0.89             0.01   12.47             0.03    1.26
     4  SYMFIT  ................      0.00    0.19             0.00    0.01             0.00    0.18
     4  CORORT  ................      0.00    0.03             0.00    0.02             0.00    0.03
     4  SYMORB  ................      0.00    0.09             0.00    0.00             0.00    0.09
     4  CLSMAT  ................      0.01    0.23             0.00    0.01             0.01    0.23
     4  ORTHON  ................      0.01    0.25             0.00    0.40             0.01    0.25
     4  GENPT   ................      0.05    2.02             0.00    6.99             0.06    2.12
     4  PTBAS   ................      0.06    2.22             0.00    3.87             0.06    2.25
    35  FOCKY   ................      0.17   58.92             0.00   29.94             0.17   58.24
    35  FOCKTR  ................      0.00    0.66             0.00    1.36             0.00    0.67
    35  SDIIS   ................      0.00    0.98             0.00    1.85             0.00    0.99
     4  TOTEN   ................      0.49   19.12             0.01   12.93             0.50   18.96
     4  POPAN   ................      0.00    0.14             0.00    0.04             0.00    0.13
     4  DEBYE   ................      0.00    0.18             0.00    1.58             0.01    0.20
     4  INPUTE  ................      0.00    0.02             0.00    0.27             0.00    0.02
     4  SYMORE  ................      0.00    0.04             0.00    0.01             0.00    0.04
     7  ELNRGY  ................      0.12    8.03             0.00    7.29             0.12    8.00
     3  ENGRAD  ................      0.00    0.02             0.00    0.38             0.00    0.03
     1  COREPS  ................      0.14    1.33             0.00    0.00             0.14    1.30
     1  METS    ................      0.00    0.02             0.00    0.00             0.00    0.02
     1  CETS    ................      0.01    0.06             0.00    0.13             0.01    0.06
     1  POPUL   ................      0.01    0.08             0.00    0.01             0.01    0.07
     1  EXIT PROCEDURE .........      0.02    0.15             0.00    1.85             0.02    0.18


 Currently Open Files (EXIT00)
 ====================

 Unit    Access Format  Status   Type       Ident (file)
 -------------------------------------------------------
   3      SEQ    FORM   TRANSP  NORMAL      LOGFILE
                                          ( logfile )

 ***************************************************************************************************
 (LOGFILE)
 <Sep02-2020> <11:38:42>  ADF 2019  RunTime: Sep02-2020 11:38:42  Nodes: 1  Procs: 1
 <Sep02-2020> <11:38:42>  Hydrogen (TZP)
 <Sep02-2020> <11:38:42>  RunType   : CREATE
 <Sep02-2020> <11:38:42>  Net Charge: 0 (Nuclei minus Electrons)
 <Sep02-2020> <11:38:42>  Symmetry  : ATOM
  Coordinates
    Atom         X           Y           Z   (Angstrom)
    1.H         0.000000    0.000000    0.000000
 <Sep02-2020> <11:38:42>  >>>> CORORT
 <Sep02-2020> <11:38:42>  >>>> CLSMAT
 <Sep02-2020> <11:38:42>  >>>> ORTHON
 <Sep02-2020> <11:38:42>  >>>> GENPT
 <Sep02-2020> <11:38:42>  Block Length=  64
 <Sep02-2020> <11:38:42>  >>>> PTBAS
 <Sep02-2020> <11:38:42>  >>>> CYCLE
 <Sep02-2020> <11:38:42>              |Error|         MaxErr       Wt(A-DIIS)
 <Sep02-2020> <11:38:42>      1      0.00000000      0.00000000
 <Sep02-2020> <11:38:42>      2      0.03052909      0.02968459
 <Sep02-2020> <11:38:42>      3      0.00718138      0.00670742    100.0
 <Sep02-2020> <11:38:42>      4      0.00117303      0.00114116      0.1
 <Sep02-2020> <11:38:42>      5      0.00002783      0.00002380      0.0
 <Sep02-2020> <11:38:42>      6      0.00000153      0.00000130      0.0
 <Sep02-2020> <11:38:42>      7      0.00000000      0.00000000      0.0
 <Sep02-2020> <11:38:42>  SCF converged
 <Sep02-2020> <11:38:42>      8      0.00000000      0.00000000      0.0
 <Sep02-2020> <11:38:42>  >>>> POPAN
 <Sep02-2020> <11:38:42>  >>>> DEBYE
 <Sep02-2020> <11:38:42>  NORMAL TERMINATION
 <Sep02-2020> <11:38:42>  END
 <Sep02-2020> <11:38:42>  ADF 2019  RunTime: Sep02-2020 11:38:42  Nodes: 1  Procs: 1
 <Sep02-2020> <11:38:42>  Carbon (TZP)
 <Sep02-2020> <11:38:42>  RunType   : CREATE
 <Sep02-2020> <11:38:42>  Net Charge: 0 (Nuclei minus Electrons)
 <Sep02-2020> <11:38:42>  Symmetry  : ATOM
  Coordinates
    Atom         X           Y           Z   (Angstrom)
    1.C         0.000000    0.000000    0.000000
 <Sep02-2020> <11:38:42>  >>>> CORORT
 <Sep02-2020> <11:38:42>  >>>> CLSMAT
 <Sep02-2020> <11:38:42>  >>>> ORTHON
 <Sep02-2020> <11:38:42>  >>>> GENPT
 <Sep02-2020> <11:38:42>  Block Length=  72
 <Sep02-2020> <11:38:42>  >>>> PTBAS
 <Sep02-2020> <11:38:42>  >>>> CYCLE
 <Sep02-2020> <11:38:42>              |Error|         MaxErr       Wt(A-DIIS)
 <Sep02-2020> <11:38:42>      1      0.00000000      0.00000000
 <Sep02-2020> <11:38:42>      2      4.48324754      3.31969244    100.0
 <Sep02-2020> <11:38:42>      3      1.61537707      1.30410194    100.0
 <Sep02-2020> <11:38:42>      4      0.72706284      0.59053131    100.0
 <Sep02-2020> <11:38:42>      5      0.40898688      0.33263800    100.0
 <Sep02-2020> <11:38:42>      6      0.13548919      0.10594416    100.0
 <Sep02-2020> <11:38:42>      7      0.11406432      0.09088019     90.8
 <Sep02-2020> <11:38:42>      8      0.01170325      0.00926551      8.3
 <Sep02-2020> <11:38:42>      9      0.00078015      0.00061791      0.0
 <Sep02-2020> <11:38:42>     10      0.00000178      0.00000107      0.0
 <Sep02-2020> <11:38:42>     11      0.00000024      0.00000019      0.0
 <Sep02-2020> <11:38:42>     12      0.00000000      0.00000000      0.0
 <Sep02-2020> <11:38:42>  SCF converged
 <Sep02-2020> <11:38:42>     13      0.00000000      0.00000000      0.0
 <Sep02-2020> <11:38:42>  >>>> POPAN
 <Sep02-2020> <11:38:42>  >>>> DEBYE
 <Sep02-2020> <11:38:42>  NORMAL TERMINATION
 <Sep02-2020> <11:38:43>  END
 <Sep02-2020> <11:38:43>  ADF 2019  RunTime: Sep02-2020 11:38:43  Nodes: 1  Procs: 6
 <Sep02-2020> <11:38:43>  *** (NO TITLE) ***
 <Sep02-2020> <11:38:43>  RunType   : GEOMETRY OPTIMIZATION
 <Sep02-2020> <11:38:43>  Net Charge: 0 (Nuclei minus Electrons)
 <Sep02-2020> <11:38:43>  Symmetry  : NOSYM
 <Sep02-2020> <11:38:43>  >>>> FRAGM
  Coordinates in Geometry Cycle 1
    Atom         X           Y           Z   (Angstrom)
    1.C         0.029751    4.000000   -1.399307
    2.C        -1.197690    4.000000   -0.725018
    3.C        -1.227459    4.000000    0.675122
    4.C        -0.029787    4.000000    1.400973
    5.C         1.197655    4.000000    0.726684
    6.C         1.227424    4.000000   -0.673456
    7.H        -2.112755    4.000000   -1.279594
    8.H        -2.165269    4.000000    1.190304
    9.H        -0.052531    4.000000    2.470731
   10.H         2.112720    4.000000    1.281260
   11.H         2.165234    4.000000   -1.188638
   12.H         0.052709    4.000000   -2.479063
 <Sep02-2020> <11:38:43>  >>>> CORORT
 <Sep02-2020> <11:38:43>  >>>> CLSMAT
 <Sep02-2020> <11:38:43>  >>>> ORTHON
 <Sep02-2020> <11:38:43>  >>>> GENPT
 <Sep02-2020> <11:38:43>  Block Length= 128
 <Sep02-2020> <11:38:43>  >>>> PTBAS
 <Sep02-2020> <11:38:43>  >>>> CYCLE
 <Sep02-2020> <11:38:44>              |Error|         MaxErr       Wt(A-DIIS)
 <Sep02-2020> <11:38:44>      1      6.04876243      0.85635299
 <Sep02-2020> <11:38:44>      2      0.89046883      0.08401268    100.0
 <Sep02-2020> <11:38:44>      3      0.52750797      0.04930784    100.0
 <Sep02-2020> <11:38:44>      4      0.73090728      0.06922831    100.0
 <Sep02-2020> <11:38:44>      5      0.07123100      0.00626577      5.3
 <Sep02-2020> <11:38:45>      6      0.00930786      0.00132952      0.3
 <Sep02-2020> <11:38:45>      7      0.00132366      0.00017985      0.0
 <Sep02-2020> <11:38:45>      8      0.00145746      0.00025224      0.0
 <Sep02-2020> <11:38:45>      9      0.00011663      0.00002016      0.0
 <Sep02-2020> <11:38:45>     10      0.00011277      0.00002387      0.0
 <Sep02-2020> <11:38:45>     11      0.00000245      0.00000038      0.0
 <Sep02-2020> <11:38:45>  SCF converged
 <Sep02-2020> <11:38:46>     12      0.00000312      0.00000052      0.0
 <Sep02-2020> <11:38:46>  >>>> TOTEN
 <Sep02-2020> <11:38:46>  >>>> POPAN
 <Sep02-2020> <11:38:46>  >>>> DEBYE
 <Sep02-2020> <11:38:46>  >>>> ENGRAD
 <Sep02-2020> <11:38:46>  current energy                               -2.74326200 Hartree
 <Sep02-2020> <11:38:46>  energy change                      -2.74326200     0.00100000    F
 <Sep02-2020> <11:38:46>  constrained gradient max            0.02936002     0.00100000    F
 <Sep02-2020> <11:38:46>  constrained gradient rms            0.01544634     0.00066667    F
 <Sep02-2020> <11:38:46>  gradient max                        0.02936002
 <Sep02-2020> <11:38:46>  gradient rms                        0.01544634
 <Sep02-2020> <11:38:46>  cart. step max                      0.01759936     0.01000000    F
 <Sep02-2020> <11:38:46>  cart. step rms                      0.00713387     0.00666667    F
  Coordinates in Geometry Cycle 2
    Atom         X           Y           Z   (Angstrom)
    1.C         0.029751    4.000000   -1.398706
    2.C        -1.197391    4.000000   -0.725524
    3.C        -1.227100    4.000000    0.674044
    4.C        -0.029774    4.000000    1.399237
    5.C         1.197302    4.000000    0.725559
    6.C         1.227216    4.000000   -0.674022
    7.H        -2.128602    4.000000   -1.290504
    8.H        -2.181549    4.000000    1.198922
    9.H        -0.053022    4.000000    2.488331
   10.H         2.128596    4.000000    1.290435
   11.H         2.181603    4.000000   -1.199003
   12.H         0.052970    4.000000   -2.488770
 <Sep02-2020> <11:38:46>  >>>> CORORT
 <Sep02-2020> <11:38:46>  >>>> CLSMAT
 <Sep02-2020> <11:38:46>  >>>> ORTHON
 <Sep02-2020> <11:38:46>  >>>> GENPT
 <Sep02-2020> <11:38:46>  Block Length= 128
 <Sep02-2020> <11:38:46>  >>>> PTBAS
 <Sep02-2020> <11:38:46>  >>>> CYCLE
 <Sep02-2020> <11:38:47>              |Error|         MaxErr       Wt(A-DIIS)
 <Sep02-2020> <11:38:47>      1      0.09721208      0.02342399
 <Sep02-2020> <11:38:47>      2      0.01286841      0.00143414    100.0
 <Sep02-2020> <11:38:47>      3      0.01783479      0.00262542    100.0
 <Sep02-2020> <11:38:47>      4      0.00580148      0.00091827      0.0
 <Sep02-2020> <11:38:47>      5      0.00209097      0.00030530      0.0
 <Sep02-2020> <11:38:48>      6      0.00053171      0.00006464      0.0
 <Sep02-2020> <11:38:48>      7      0.00017569      0.00002710      0.0
 <Sep02-2020> <11:38:48>      8      0.00001227      0.00000198      0.0
 <Sep02-2020> <11:38:48>      9      0.00000813      0.00000171      0.0
 <Sep02-2020> <11:38:48>     10      0.00000081      0.00000014      0.0
 <Sep02-2020> <11:38:48>  SCF converged
 <Sep02-2020> <11:38:48>     11      0.00000022      0.00000003      0.0
 <Sep02-2020> <11:38:48>  >>>> TOTEN
 <Sep02-2020> <11:38:49>  >>>> POPAN
 <Sep02-2020> <11:38:49>  >>>> DEBYE
 <Sep02-2020> <11:38:49>  >>>> ENGRAD
 <Sep02-2020> <11:38:49>  current energy                               -2.74480790 Hartree
 <Sep02-2020> <11:38:49>  energy change                      -0.00154590     0.00100000    F
 <Sep02-2020> <11:38:49>  constrained gradient max            0.00370473     0.00100000    F
 <Sep02-2020> <11:38:49>  constrained gradient rms            0.00182100     0.00066667    F
 <Sep02-2020> <11:38:49>  gradient max                        0.00370473
 <Sep02-2020> <11:38:49>  gradient rms                        0.00182100
 <Sep02-2020> <11:38:49>  cart. step max                      0.00172258     0.01000000    T
 <Sep02-2020> <11:38:49>  cart. step rms                      0.00072678     0.00666667    T
  Coordinates in Geometry Cycle 3
    Atom         X           Y           Z   (Angstrom)
    1.C         0.029688    4.000000   -1.398577
    2.C        -1.196990    4.000000   -0.725332
    3.C        -1.226683    4.000000    0.673711
    4.C        -0.029692    4.000000    1.398648
    5.C         1.196955    4.000000    0.725313
    6.C         1.226727    4.000000   -0.673736
    7.H        -2.130139    4.000000   -1.291480
    8.H        -2.183120    4.000000    1.199796
    9.H        -0.052952    4.000000    2.490053
   10.H         2.130122    4.000000    1.291475
   11.H         2.183151    4.000000   -1.199796
   12.H         0.052934    4.000000   -2.490074
 <Sep02-2020> <11:38:49>  >>>> CORORT
 <Sep02-2020> <11:38:49>  >>>> CLSMAT
 <Sep02-2020> <11:38:49>  >>>> ORTHON
 <Sep02-2020> <11:38:49>  >>>> GENPT
 <Sep02-2020> <11:38:49>  Block Length= 128
 <Sep02-2020> <11:38:49>  >>>> PTBAS
 <Sep02-2020> <11:38:49>  >>>> CYCLE
 <Sep02-2020> <11:38:50>              |Error|         MaxErr       Wt(A-DIIS)
 <Sep02-2020> <11:38:50>      1      0.01264378      0.00324708
 <Sep02-2020> <11:38:50>      2      0.00165822      0.00024133    100.0
 <Sep02-2020> <11:38:50>      3      0.00145952      0.00019494    100.0
 <Sep02-2020> <11:38:50>      4      0.00094901      0.00016951      0.0
 <Sep02-2020> <11:38:50>      5      0.00011647      0.00002291      0.0
 <Sep02-2020> <11:38:50>      6      0.00004710      0.00000997      0.0
 <Sep02-2020> <11:38:51>      7      0.00001214      0.00000158      0.0
 <Sep02-2020> <11:38:51>      8      0.00000199      0.00000023      0.0
 <Sep02-2020> <11:38:51>  SCF converged
 <Sep02-2020> <11:38:51>      9      0.00000091      0.00000020      0.0
 <Sep02-2020> <11:38:51>  >>>> TOTEN
 <Sep02-2020> <11:38:51>  >>>> POPAN
 <Sep02-2020> <11:38:51>  >>>> DEBYE
 <Sep02-2020> <11:38:51>  >>>> ENGRAD
 <Sep02-2020> <11:38:52>  current energy                               -2.74482864 Hartree
 <Sep02-2020> <11:38:52>  energy change                      -0.00002074     0.00100000    T
 <Sep02-2020> <11:38:52>  constrained gradient max            0.00017695     0.00100000    T
 <Sep02-2020> <11:38:52>  constrained gradient rms            0.00008920     0.00066667    T
 <Sep02-2020> <11:38:52>  gradient max                        0.00017695
 <Sep02-2020> <11:38:52>  gradient rms                        0.00008920
 <Sep02-2020> <11:38:52>  cart. step max                      0.00016357     0.01000000    T
 <Sep02-2020> <11:38:52>  cart. step rms                      0.00006243     0.00666667    T
 <Sep02-2020> <11:38:52>  GEOMETRY CONVERGED
 <Sep02-2020> <11:38:52>  Calculating Energy Terms for Final Geometry
  Coordinates in Geometry Cycle 3
    Atom         X           Y           Z   (Angstrom)
    1.C         0.029688    4.000000   -1.398577
    2.C        -1.196990    4.000000   -0.725332
    3.C        -1.226683    4.000000    0.673711
    4.C        -0.029692    4.000000    1.398648
    5.C         1.196955    4.000000    0.725313
    6.C         1.226727    4.000000   -0.673736
    7.H        -2.130139    4.000000   -1.291480
    8.H        -2.183120    4.000000    1.199796
    9.H        -0.052952    4.000000    2.490053
   10.H         2.130122    4.000000    1.291475
   11.H         2.183151    4.000000   -1.199796
   12.H         0.052934    4.000000   -2.490074
 <Sep02-2020> <11:38:52>  >>>> CORORT
 <Sep02-2020> <11:38:52>  >>>> CLSMAT
 <Sep02-2020> <11:38:52>  >>>> ORTHON
 <Sep02-2020> <11:38:52>  >>>> GENPT
 <Sep02-2020> <11:38:52>  Block Length= 128
 <Sep02-2020> <11:38:52>  >>>> PTBAS
 <Sep02-2020> <11:38:52>  >>>> CYCLE
 <Sep02-2020> <11:38:52>              |Error|         MaxErr       Wt(A-DIIS)
 <Sep02-2020> <11:38:52>      1      0.00000011      0.00000003
 <Sep02-2020> <11:38:52>      2      0.00000022      0.00000007    100.0
 <Sep02-2020> <11:38:52>  SCF converged
 <Sep02-2020> <11:38:52>      3      0.00000051      0.00000017    100.0
 <Sep02-2020> <11:38:53>  >>>> TOTEN
 <Sep02-2020> <11:38:53>  >>>> POPAN
 <Sep02-2020> <11:38:53>  >>>> DEBYE
 <Sep02-2020> <11:38:53>  >>>> AMETS
 <Sep02-2020> <11:38:53>  >>>> POPUL
 <Sep02-2020> <11:38:53>   Bond Energy          -2.74482864 a.u.
 <Sep02-2020> <11:38:53>   Bond Energy         -74.69058751 eV
 <Sep02-2020> <11:38:53>   Bond Energy       -1722.41       kcal/mol
 <Sep02-2020> <11:38:53>  NORMAL TERMINATION
 <Sep02-2020> <11:38:53>  END
