

 Parallel Execution: Process Information
 ==============================================================================
 Rank   Node Name                              NodeID   MyNodeRank  NodeMaster
    0   magnesium.science.psu.edu                 0          0          0
    1   magnesium.science.psu.edu                 0          1         -1
    2   magnesium.science.psu.edu                 0          2         -1
    3   magnesium.science.psu.edu                 0          3         -1
    4   magnesium.science.psu.edu                 0          4         -1
    5   magnesium.science.psu.edu                 0          5         -1
 ==============================================================================


May use up to 7495MB of RAM as shared memory on node 0
 
TITLE None

ATOMS
1  C     0.02970000    3.99955023   -1.39860000
2  C    -1.19700000    3.99979893   -0.72530000
3  C    -1.22670000    4.00025399    0.67370000
4  C    -0.02970000    4.00044977    1.39860000
5  C     1.19700000    4.00020107    0.72530000
6  C     1.22670000    3.99974601   -0.67370000
7  H    -2.13010000    4.00133872   -1.29150000
8  H    -2.18310000    3.99830676    1.19980000
9  H    -0.05300000    3.99699450    2.49010000
10 H     2.13010000    3.99866657    1.29150000
11 H     2.18320000    4.00169853   -1.19980000
12 H     0.05290000    4.00300550   -2.49010000
END

XC
 gga BP86
end

symmetry nosym

aoresponse
 alda
 frequency 1 3.6 eV
 lifetime 0.0037
 El_Dipole_El_Dipole
 El_Dipole_El_Quadrupole
 El_Quadrupole_El_Quadrupole
 Traceless
end

Fragments
H t21.H
C t21.C
End

 *******************************************************************************
 *                                                                             *
 *  -------------------------------------                                      *
 *   Amsterdam Density Functional  (ADF)         2019                          *
 *  -------------------------------------                                      *
 *                                               r75281 2019-06-03             *
 *                                                                             *
 *                                                                             *
 *                              =================                              *
 *                              |               |                              *
 *                              |     A D F     |                              *
 *                              |               |                              *
 *                              =================                              *
 *                                                                             *
 *                                                                             *
 *   Online information and documentation:  https://www.scm.com/support/       *
 *   E-mail:  support@scm.com   info@scm.com                                   *
 *                                                                             *
 *   Scientific publications using ADF results must be properly referenced     *
 *   See the User Manuals (or the web site) for recommended citations          *
 *   The terms and conditions of the End User License Agreement apply to       *
 *   the use of ADF, https://www.scm.com/license-terms/                        *
 *                                                                             *
 **********************  x86_64_linux_intel / intelmpi  ************************
 
 Licensed to: Prof. Lasse Jensen / Penn State University / University Park / PA  / USA
 SCM User ID: u8493
  
 ADF 2019  RunTime: Sep29-2020 15:34:31  Nodes: 1  Procs: 6

 Temporary files are created in /scratch/kid_0.2002766922


Communication costs MPI_COMM_WORLD:      0.554 usec per message,   0.0071 usec per 8-byte item
Communication costs for intra-node:      0.535 usec per message,   0.0072 usec per 8-byte item

 None



 ===========================
 A T T A C H E D   F I L E S
 ===========================
  



 ===============================
 M O D E L   P A R A M E T E R S
 ===============================
  
 DENSITY FUNCTIONAL POTENTIAL (scf)
    LDA:                               VWN                                      
    Gradient Corrections:              Becke88 Perdew86                        == Not Default ==

 SPIN  (restricted / unrestr.)
    Molecule:                          Restricted                               
    Fragments:                         Restricted                               

 OTHER ASPECTS
    Relativistic Corrections:          ---                                      

    Nuclear Charge Density Model:      Point Charge Nuclei                      
    Core Treatment:                    Frozen Orbital(s)                        

    Hyperfine or Zeeman Interaction:   ---                                      


 Fragment File(s)
 ----------------
 C:
         file : t21.C
         jobid: ADF 2019  RunTime: Sep29-2020 15:34:30  Nodes: 1  Procs: 1
         title: Carbon (TZP)
 H:
         file : t21.H
         jobid: ADF 2019  RunTime: Sep29-2020 15:34:29  Nodes: 1  Procs: 1
         title: Hydrogen (TZP)



                                        ************************************
                                        *  R U N   T Y P E : SINGLE POINT  *
                                        ************************************
  



 ===============
 G E O M E T R Y  ***  3D  Molecule  ***
 ===============
  

 ATOMS
 =====                            X Y Z                    CHARGE
                                (Angstrom)             Nucl     +Core       At.Mass
                       --------------------------    ----------------       -------
    1  C               0.0297    3.9996   -1.3986      6.00      6.00       12.0000
    2  C              -1.1970    3.9998   -0.7253      6.00      6.00       12.0000
    3  C              -1.2267    4.0003    0.6737      6.00      6.00       12.0000
    4  C              -0.0297    4.0004    1.3986      6.00      6.00       12.0000
    5  C               1.1970    4.0002    0.7253      6.00      6.00       12.0000
    6  C               1.2267    3.9997   -0.6737      6.00      6.00       12.0000
    7  H              -2.1301    4.0013   -1.2915      1.00      1.00        1.0078
    8  H              -2.1831    3.9983    1.1998      1.00      1.00        1.0078
    9  H              -0.0530    3.9970    2.4901      1.00      1.00        1.0078
   10  H               2.1301    3.9987    1.2915      1.00      1.00        1.0078
   11  H               2.1832    4.0017   -1.1998      1.00      1.00        1.0078
   12  H               0.0529    4.0030   -2.4901      1.00      1.00        1.0078


 FRAGMENTS
 =========                                     Atoms in this Fragment     Cart. coord.s (Angstrom)
                                               -------------------------------------------------------
    1  C                                                 1  C            0.0297    3.9996   -1.3986
    2  C                                                 2  C           -1.1970    3.9998   -0.7253
    3  C                                                 3  C           -1.2267    4.0003    0.6737
    4  C                                                 4  C           -0.0297    4.0004    1.3986
    5  C                                                 5  C            1.1970    4.0002    0.7253
    6  C                                                 6  C            1.2267    3.9997   -0.6737
    7  H                                                 7  H           -2.1301    4.0013   -1.2915
    8  H                                                 8  H           -2.1831    3.9983    1.1998
    9  H                                                 9  H           -0.0530    3.9970    2.4901
   10  H                                                10  H            2.1301    3.9987    1.2915
   11  H                                                11  H            2.1832    4.0017   -1.1998
   12  H                                                12  H            0.0529    4.0030   -2.4901


 Interatomic Distance Matrix (Angstrom)
 --------------------------------------

   1)     0.000
   2)     1.399   0.000
   3)     2.423   1.399   0.000
   4)     2.798   2.424   1.399   0.000
   5)     2.424   2.799   2.424   1.399   0.000
   6)     1.399   2.424   2.799   2.423   1.399   0.000
   7)     2.162   1.091   2.163   3.413   3.891   3.413   0.000
   8)     3.413   2.163   1.092   2.163   3.413   3.891   2.492   0.000
   9)     3.890   3.413   2.163   1.092   2.163   3.413   4.314   2.490   0.000
  10)     3.413   3.891   3.413   2.162   1.091   2.163   4.982   4.314   2.490   0.000
  11)     2.163   3.413   3.891   3.413   2.163   1.092   4.314   4.982   4.315   2.492
          0.000
  12)     1.092   2.163   3.413   3.890   3.413   2.163   2.490   4.315   4.981   4.315
          2.491   0.000

 Min. Distance =    1.0914
 Max. Distance =    4.9822



 =====================================
 S Y M M E T R Y ,   E L E C T R O N S
 =====================================
  
 Symmetry: NOSYM

 Irreducible Representations, including subspecies
 -------------------------------------------------
 A


 Configuration of Valence Electrons
 ==================================
 ( determined in the SCF procedure )

 Total:   42

 Net Charge: 0 (Nuclei minus Electrons)

 Aufbau principle for MO occupations will be applied through SCF cycle no.     150
 Thereafter, the program will assign electrons to MOs that are spatially
 similar to the occupied MOs in a "reference" cycle ("KeepOrbitals").
 The reference cycle is always the PREVIOUS cycle: it will evolve with
 the SCF procedure.
1
 ***************************************************************************************************



                                      ****************************************
                                      *  B U I L D : (Fragments, Functions)  *
                                      ****************************************
  



 =======
 S F O s  ***  (Symmetrized Fragment Orbitals)  ***
 =======
  
 SFOs are linear combinations of (valence) Fragment Orbitals (FOs), such that the SFOs transform as the
 irreducible representations of the (molecular) symmetry group. Each SFO is therefore characterized by
 an irrep of the molecule and by a few (or only one) generating FOs.
 The SFOs constitute a symmetry-adapted basis for the Fock matrix. The MO eigenvector coefficients in
 this basis provide a direct interpretation of the MOs in terms of Frontier Orbital Theory.

 The SFOs are combined with auxiliary Core Functions (CFs) to ensure orthogonalization on the (frozen)
 Core Orbitals (COs). The Core-orthogonalized SFOs (CSFOs) constitute the true Fock basis.

 The FOs, and hence also the (C)SFOs are combinations of the elementary basis functions (BAS). The basis
 functions that participate in the description of the SFOs depend on the irrep. The indices of the
 involved functions are printed below for each irrep.
 (The complete list of primitive basis functions is printed in another section)

 Total nr. of (C)SFOs (summation over all irreps) :   150

 NOTE: a (C)SFO that is defined as a combination of more than one FO is usually NOT normalized.



                                       === A ===
 Nr. of SFOs :  150
 Cartesian basis functions that participate in this irrep (total number =   156) :
      1     2     3     4     5     6     9    12     7    10
     13     8    11    14    15    16    17    18    19    20
     21    22    23    24    25    26    29    32    27    30
     33    28    31    34    35    36    37    38    39    40
     41    42    43    44    45    46    49    52    47    50
     53    48    51    54    55    56    57    58    59    60
     61    62    63    64    65    66    69    72    67    70
     73    68    71    74    75    76    77    78    79    80
     81    82    83    84    85    86    89    92    87    90
     93    88    91    94    95    96    97    98    99   100
    101   102   103   104   105   106   109   112   107   110
    113   108   111   114   115   116   117   118   119   120
    121   122   123   124   125   126   127   128   129   130
    131   132   133   134   135   136   137   138   139   140
    141   142   143   144   145   146   147   148   149   150
    151   152   153   154   155   156

    SFO  (index         Fragment          Generating    Expansion in Fragment Orbitals
  indx  incl.CFs)   Occup   Orb.Energy   FragmentType  Coeff.   Orbital     on Fragment
 --------------------------------------------------------------------------------------
     1       1      2.000     -10.058 au  C             1.00      1 S               1
                        (    -273.681 eV)
     2       2      2.000      -0.510 au  C             1.00      2 S               1
                        (     -13.876 eV)
     3       3       --         0.371 au  C             1.00      3 S               1
                        (      10.091 eV)
     4       4       --         5.428 au  C             1.00      4 S               1
                        (     147.707 eV)
     5       5       --        50.181 au  C             1.00      5 S               1
                        (    1365.486 eV)
     6       6      0.667      -0.199 au  C             1.00      1 P:x             1
                        (      -5.403 eV)
     7       7       --         0.173 au  C             1.00      2 P:x             1
                        (       4.709 eV)
     8       8       --         2.026 au  C             1.00      3 P:x             1
                        (      55.143 eV)
     9       9      0.667      -0.199 au  C             1.00      1 P:y             1
                        (      -5.403 eV)
    10      10       --         0.173 au  C             1.00      2 P:y             1
                        (       4.709 eV)
    11      11       --         2.026 au  C             1.00      3 P:y             1
                        (      55.143 eV)
    12      12      0.667      -0.199 au  C             1.00      1 P:z             1
                        (      -5.403 eV)
    13      13       --         0.173 au  C             1.00      2 P:z             1
                        (       4.709 eV)
    14      14       --         2.026 au  C             1.00      3 P:z             1
                        (      55.143 eV)
    15      15       --         1.232 au  C             1.00      1 D:z2            1
                        (      33.528 eV)
    16      16       --         1.232 au  C             1.00      1 D:x2-y2         1
                        (      33.528 eV)
    17      17       --         1.232 au  C             1.00      1 D:xy            1
                        (      33.528 eV)
    18      18       --         1.232 au  C             1.00      1 D:xz            1
                        (      33.528 eV)
    19      19       --         1.232 au  C             1.00      1 D:yz            1
                        (      33.528 eV)
    20      20      2.000     -10.058 au  C             1.00      1 S               2
                        (    -273.681 eV)
    21      21      2.000      -0.510 au  C             1.00      2 S               2
                        (     -13.876 eV)
    22      22       --         0.371 au  C             1.00      3 S               2
                        (      10.091 eV)
    23      23       --         5.428 au  C             1.00      4 S               2
                        (     147.707 eV)
    24      24       --        50.181 au  C             1.00      5 S               2
                        (    1365.486 eV)
    25      25      0.667      -0.199 au  C             1.00      1 P:x             2
                        (      -5.403 eV)
    26      26       --         0.173 au  C             1.00      2 P:x             2
                        (       4.709 eV)
    27      27       --         2.026 au  C             1.00      3 P:x             2
                        (      55.143 eV)
    28      28      0.667      -0.199 au  C             1.00      1 P:y             2
                        (      -5.403 eV)
    29      29       --         0.173 au  C             1.00      2 P:y             2
                        (       4.709 eV)
    30      30       --         2.026 au  C             1.00      3 P:y             2
                        (      55.143 eV)
    31      31      0.667      -0.199 au  C             1.00      1 P:z             2
                        (      -5.403 eV)
    32      32       --         0.173 au  C             1.00      2 P:z             2
                        (       4.709 eV)
    33      33       --         2.026 au  C             1.00      3 P:z             2
                        (      55.143 eV)
    34      34       --         1.232 au  C             1.00      1 D:z2            2
                        (      33.528 eV)
    35      35       --         1.232 au  C             1.00      1 D:x2-y2         2
                        (      33.528 eV)
    36      36       --         1.232 au  C             1.00      1 D:xy            2
                        (      33.528 eV)
    37      37       --         1.232 au  C             1.00      1 D:xz            2
                        (      33.528 eV)
    38      38       --         1.232 au  C             1.00      1 D:yz            2
                        (      33.528 eV)
    39      39      2.000     -10.058 au  C             1.00      1 S               3
                        (    -273.681 eV)
    40      40      2.000      -0.510 au  C             1.00      2 S               3
                        (     -13.876 eV)
    41      41       --         0.371 au  C             1.00      3 S               3
                        (      10.091 eV)
    42      42       --         5.428 au  C             1.00      4 S               3
                        (     147.707 eV)
    43      43       --        50.181 au  C             1.00      5 S               3
                        (    1365.486 eV)
    44      44      0.667      -0.199 au  C             1.00      1 P:x             3
                        (      -5.403 eV)
    45      45       --         0.173 au  C             1.00      2 P:x             3
                        (       4.709 eV)
    46      46       --         2.026 au  C             1.00      3 P:x             3
                        (      55.143 eV)
    47      47      0.667      -0.199 au  C             1.00      1 P:y             3
                        (      -5.403 eV)
    48      48       --         0.173 au  C             1.00      2 P:y             3
                        (       4.709 eV)
    49      49       --         2.026 au  C             1.00      3 P:y             3
                        (      55.143 eV)
    50      50      0.667      -0.199 au  C             1.00      1 P:z             3
                        (      -5.403 eV)
    51      51       --         0.173 au  C             1.00      2 P:z             3
                        (       4.709 eV)
    52      52       --         2.026 au  C             1.00      3 P:z             3
                        (      55.143 eV)
    53      53       --         1.232 au  C             1.00      1 D:z2            3
                        (      33.528 eV)
    54      54       --         1.232 au  C             1.00      1 D:x2-y2         3
                        (      33.528 eV)
    55      55       --         1.232 au  C             1.00      1 D:xy            3
                        (      33.528 eV)
    56      56       --         1.232 au  C             1.00      1 D:xz            3
                        (      33.528 eV)
    57      57       --         1.232 au  C             1.00      1 D:yz            3
                        (      33.528 eV)
    58      58      2.000     -10.058 au  C             1.00      1 S               4
                        (    -273.681 eV)
    59      59      2.000      -0.510 au  C             1.00      2 S               4
                        (     -13.876 eV)
    60      60       --         0.371 au  C             1.00      3 S               4
                        (      10.091 eV)
    61      61       --         5.428 au  C             1.00      4 S               4
                        (     147.707 eV)
    62      62       --        50.181 au  C             1.00      5 S               4
                        (    1365.486 eV)
    63      63      0.667      -0.199 au  C             1.00      1 P:x             4
                        (      -5.403 eV)
    64      64       --         0.173 au  C             1.00      2 P:x             4
                        (       4.709 eV)
    65      65       --         2.026 au  C             1.00      3 P:x             4
                        (      55.143 eV)
    66      66      0.667      -0.199 au  C             1.00      1 P:y             4
                        (      -5.403 eV)
    67      67       --         0.173 au  C             1.00      2 P:y             4
                        (       4.709 eV)
    68      68       --         2.026 au  C             1.00      3 P:y             4
                        (      55.143 eV)
    69      69      0.667      -0.199 au  C             1.00      1 P:z             4
                        (      -5.403 eV)
    70      70       --         0.173 au  C             1.00      2 P:z             4
                        (       4.709 eV)
    71      71       --         2.026 au  C             1.00      3 P:z             4
                        (      55.143 eV)
    72      72       --         1.232 au  C             1.00      1 D:z2            4
                        (      33.528 eV)
    73      73       --         1.232 au  C             1.00      1 D:x2-y2         4
                        (      33.528 eV)
    74      74       --         1.232 au  C             1.00      1 D:xy            4
                        (      33.528 eV)
    75      75       --         1.232 au  C             1.00      1 D:xz            4
                        (      33.528 eV)
    76      76       --         1.232 au  C             1.00      1 D:yz            4
                        (      33.528 eV)
    77      77      2.000     -10.058 au  C             1.00      1 S               5
                        (    -273.681 eV)
    78      78      2.000      -0.510 au  C             1.00      2 S               5
                        (     -13.876 eV)
    79      79       --         0.371 au  C             1.00      3 S               5
                        (      10.091 eV)
    80      80       --         5.428 au  C             1.00      4 S               5
                        (     147.707 eV)
    81      81       --        50.181 au  C             1.00      5 S               5
                        (    1365.486 eV)
    82      82      0.667      -0.199 au  C             1.00      1 P:x             5
                        (      -5.403 eV)
    83      83       --         0.173 au  C             1.00      2 P:x             5
                        (       4.709 eV)
    84      84       --         2.026 au  C             1.00      3 P:x             5
                        (      55.143 eV)
    85      85      0.667      -0.199 au  C             1.00      1 P:y             5
                        (      -5.403 eV)
    86      86       --         0.173 au  C             1.00      2 P:y             5
                        (       4.709 eV)
    87      87       --         2.026 au  C             1.00      3 P:y             5
                        (      55.143 eV)
    88      88      0.667      -0.199 au  C             1.00      1 P:z             5
                        (      -5.403 eV)
    89      89       --         0.173 au  C             1.00      2 P:z             5
                        (       4.709 eV)
    90      90       --         2.026 au  C             1.00      3 P:z             5
                        (      55.143 eV)
    91      91       --         1.232 au  C             1.00      1 D:z2            5
                        (      33.528 eV)
    92      92       --         1.232 au  C             1.00      1 D:x2-y2         5
                        (      33.528 eV)
    93      93       --         1.232 au  C             1.00      1 D:xy            5
                        (      33.528 eV)
    94      94       --         1.232 au  C             1.00      1 D:xz            5
                        (      33.528 eV)
    95      95       --         1.232 au  C             1.00      1 D:yz            5
                        (      33.528 eV)
    96      96      2.000     -10.058 au  C             1.00      1 S               6
                        (    -273.681 eV)
    97      97      2.000      -0.510 au  C             1.00      2 S               6
                        (     -13.876 eV)
    98      98       --         0.371 au  C             1.00      3 S               6
                        (      10.091 eV)
    99      99       --         5.428 au  C             1.00      4 S               6
                        (     147.707 eV)
   100     100       --        50.181 au  C             1.00      5 S               6
                        (    1365.486 eV)
   101     101      0.667      -0.199 au  C             1.00      1 P:x             6
                        (      -5.403 eV)
   102     102       --         0.173 au  C             1.00      2 P:x             6
                        (       4.709 eV)
   103     103       --         2.026 au  C             1.00      3 P:x             6
                        (      55.143 eV)
   104     104      0.667      -0.199 au  C             1.00      1 P:y             6
                        (      -5.403 eV)
   105     105       --         0.173 au  C             1.00      2 P:y             6
                        (       4.709 eV)
   106     106       --         2.026 au  C             1.00      3 P:y             6
                        (      55.143 eV)
   107     107      0.667      -0.199 au  C             1.00      1 P:z             6
                        (      -5.403 eV)
   108     108       --         0.173 au  C             1.00      2 P:z             6
                        (       4.709 eV)
   109     109       --         2.026 au  C             1.00      3 P:z             6
                        (      55.143 eV)
   110     110       --         1.232 au  C             1.00      1 D:z2            6
                        (      33.528 eV)
   111     111       --         1.232 au  C             1.00      1 D:x2-y2         6
                        (      33.528 eV)
   112     112       --         1.232 au  C             1.00      1 D:xy            6
                        (      33.528 eV)
   113     113       --         1.232 au  C             1.00      1 D:xz            6
                        (      33.528 eV)
   114     114       --         1.232 au  C             1.00      1 D:yz            6
                        (      33.528 eV)
   115     115      1.000      -0.244 au  H             1.00      1 S               7
                        (      -6.626 eV)
   116     116       --         0.093 au  H             1.00      2 S               7
                        (       2.536 eV)
   117     117       --         1.515 au  H             1.00      3 S               7
                        (      41.236 eV)
   118     118       --         0.400 au  H             1.00      1 P:x             7
                        (      10.872 eV)
   119     119       --         0.400 au  H             1.00      1 P:y             7
                        (      10.872 eV)
   120     120       --         0.400 au  H             1.00      1 P:z             7
                        (      10.872 eV)
   121     121      1.000      -0.244 au  H             1.00      1 S               8
                        (      -6.626 eV)
   122     122       --         0.093 au  H             1.00      2 S               8
                        (       2.536 eV)
   123     123       --         1.515 au  H             1.00      3 S               8
                        (      41.236 eV)
   124     124       --         0.400 au  H             1.00      1 P:x             8
                        (      10.872 eV)
   125     125       --         0.400 au  H             1.00      1 P:y             8
                        (      10.872 eV)
   126     126       --         0.400 au  H             1.00      1 P:z             8
                        (      10.872 eV)
   127     127      1.000      -0.244 au  H             1.00      1 S               9
                        (      -6.626 eV)
   128     128       --         0.093 au  H             1.00      2 S               9
                        (       2.536 eV)
   129     129       --         1.515 au  H             1.00      3 S               9
                        (      41.236 eV)
   130     130       --         0.400 au  H             1.00      1 P:x             9
                        (      10.872 eV)
   131     131       --         0.400 au  H             1.00      1 P:y             9
                        (      10.872 eV)
   132     132       --         0.400 au  H             1.00      1 P:z             9
                        (      10.872 eV)
   133     133      1.000      -0.244 au  H             1.00      1 S              10
                        (      -6.626 eV)
   134     134       --         0.093 au  H             1.00      2 S              10
                        (       2.536 eV)
   135     135       --         1.515 au  H             1.00      3 S              10
                        (      41.236 eV)
   136     136       --         0.400 au  H             1.00      1 P:x            10
                        (      10.872 eV)
   137     137       --         0.400 au  H             1.00      1 P:y            10
                        (      10.872 eV)
   138     138       --         0.400 au  H             1.00      1 P:z            10
                        (      10.872 eV)
   139     139      1.000      -0.244 au  H             1.00      1 S              11
                        (      -6.626 eV)
   140     140       --         0.093 au  H             1.00      2 S              11
                        (       2.536 eV)
   141     141       --         1.515 au  H             1.00      3 S              11
                        (      41.236 eV)
   142     142       --         0.400 au  H             1.00      1 P:x            11
                        (      10.872 eV)
   143     143       --         0.400 au  H             1.00      1 P:y            11
                        (      10.872 eV)
   144     144       --         0.400 au  H             1.00      1 P:z            11
                        (      10.872 eV)
   145     145      1.000      -0.244 au  H             1.00      1 S              12
                        (      -6.626 eV)
   146     146       --         0.093 au  H             1.00      2 S              12
                        (       2.536 eV)
   147     147       --         1.515 au  H             1.00      3 S              12
                        (      41.236 eV)
   148     148       --         0.400 au  H             1.00      1 P:x            12
                        (      10.872 eV)
   149     149       --         0.400 au  H             1.00      1 P:y            12
                        (      10.872 eV)
   150     150       --         0.400 au  H             1.00      1 P:z            12
                        (      10.872 eV)



 ================================
 (Slater-type)  F U N C T I O N S  ***  (Basis and Fit)  ***
 ================================
  

 Atom Type    1  (C)
 ==============

 Valence Basis Sets:   9
 -----------------------
   1 S    7.680000
   1 S    5.000000
   2 S    1.280000
   2 S    2.100000
   2 S    4.600000
   2 P    0.820000
   2 P    1.480000
   2 P    2.940000
   3 D    2.200000

 Atom Type    2  (H)
 ==============

 Valence Basis Sets:   4
 -----------------------
   1 S    0.690000
   1 S    0.920000
   1 S    1.580000
   2 P    1.250000


 BAS: List of all Elementary Cartesian Basis Functions
 =====================================================

 The numbering in the list below (to the right of the function characteristics) is referred
 to in print-outs of MO eigenvectors and Mulliken populations in the BAS representation
 (as contrasted to the SFO representation).

 Notes:
 1. The functions are characterized by a polynomial prefactor (powers of x,y,z and r) and
    an exponential decay factor alpha.
 2. Since the basis sets are specific for an atom TYPE, the individual functions occur on
    all atoms of that type.
 3. The word 'Core' in the left margin signals that it is a Core Function (CF) : not a
    degree of freedom in the valence set, but only used to ensure orthogonalization of
    the other valence basis functions on the frozen Core Orbitals.


 (power of) X  Y  Z  R     Alpha  on Atom
            ==========     =====     ==========

 C                                    1    2    3    4    5    6
                                  ---------------------------------------------------------------------------
            0  0  0  0     7.680      1   21   41   61   81  101
            0  0  0  0     5.000      2   22   42   62   82  102
            0  0  0  1     1.280      3   23   43   63   83  103
            0  0  0  1     2.100      4   24   44   64   84  104
            0  0  0  1     4.600      5   25   45   65   85  105
            1  0  0  0     0.820      6   26   46   66   86  106
            0  1  0  0     0.820      7   27   47   67   87  107
            0  0  1  0     0.820      8   28   48   68   88  108
            1  0  0  0     1.480      9   29   49   69   89  109
            0  1  0  0     1.480     10   30   50   70   90  110
            0  0  1  0     1.480     11   31   51   71   91  111
            1  0  0  0     2.940     12   32   52   72   92  112
            0  1  0  0     2.940     13   33   53   73   93  113
            0  0  1  0     2.940     14   34   54   74   94  114
            2  0  0  0     2.200     15   35   55   75   95  115
            1  1  0  0     2.200     16   36   56   76   96  116
            1  0  1  0     2.200     17   37   57   77   97  117
            0  2  0  0     2.200     18   38   58   78   98  118
            0  1  1  0     2.200     19   39   59   79   99  119
            0  0  2  0     2.200     20   40   60   80  100  120

 H                                    7    8    9   10   11   12
                                  ---------------------------------------------------------------------------
            0  0  0  0     0.690    121  127  133  139  145  151
            0  0  0  0     0.920    122  128  134  140  146  152
            0  0  0  0     1.580    123  129  135  141  147  153
            1  0  0  0     1.250    124  130  136  142  148  154
            0  1  0  0     1.250    125  131  137  143  149  155
            0  0  1  0     1.250    126  132  138  144  150  156

 Total number of charge fitting functions (nprimf)       804
 Total number of Cartesian basis functions (naos)        156
 Total number of Cartesian core functions  (ncos)          0

1
 ***************************************************************************************************



                                              ***********************
                                              *  T E C H N I C A L  *
                                              ***********************
  



 =============================================================
 P A R A L L E L I Z A T I O N  and  V E C T O R I Z A T I O N
 =============================================================
  
 Nr of parallel processes:                                6
 Maximum vector length in NumInt loops:                 128



 =====================
 S C F   U P D A T E S
 =====================
  
 Max. nr. of cycles:                               300
 Convergence criterion:                              0.0000010000
   secondary criterion:                              0.0010000000

 Mix parameter (when DIIS does not apply):           0.2000000000
 Mixed ADIIS+SDIIS will be used                  
    Max number of expansion vectors:                10
    Pure ADIIS when Max([F,P]) is above              0.1000000000
    Pure SDIIS when Max([F,P]) is below              0.0010000000
 Automatic ElectronSmearing (in case of problematic SCF convergence) disabled



 =================
 P R E C I S I O N  ***  (General: NumInt, NeglectFunctionTails, ...)  ***
 =================
  

 NumInt:           Target precision:                 4.0000000000
 -------           Initial precision:                4.0000000000
                   Min. precision (optimization):    4.0000000000

 Neglect Functions:          Basis functions:        0.1000000000E-13
 ------------------          Fit functions:          0.1000000000E-13



 ===========================
 L I N E A R   S C A L I N G
 ===========================
  

 Cut-off radii density fit:                        0.1000000000E-07
 Overlap cut-off criterion AO matrix elements:     0.1000000000E-05
 Cut-offs for Coulomb potential and fitted density:0.1000000000E-07
 Cut-off criterion for Coulomb multipole terms:    0.1000000000E-07
 Progressive Convergence parameter:                 0.000000000    
1
 ***************************************************************************************************



                                            ***************************
                                            *  C O M P U T A T I O N  *
                                            ***************************
  

 Number of elements of the density matrix on this node (used, total):      1962     12246



 ===========================================
 Numerical Integration : Fuzzy Cells (Becke)
 ===========================================
  
 Becke grid quality: NORMAL         
  
 Lebedev angular grid order:             min:  11 max:  23
 Nr. of radial points:                   min:  46 max:  52

 Total nr. of points:      75660
 Nr. of blocks:              592
 Block length:               128
 Nr. of dummy points:        116


 Test of Precision of the Numerical Integration Grid
 ===================================================

 Integral of the Total Core Density:                   0.00000000000000



 ========================
 Density Fitting (zlmFit)
 ========================
  
 ZlmFit Fit Quality: NORMAL         
  
 Max L-expansion:                        min:   5 max:   6
 Nr. of radial interpolation points:     min:  36 max:  48



 =====
 S C F  ***  ScaSCF  ***
 =====
  
 Initial density matrix is calculated as sum of fragments

 CYCLE    1
 SCF Error: norm([F,P])=      5.990923563415, max([F,P])=      0.980275712343
 orbitals (Q,E):
 ---------------
 A :12...31          ( 2.00    -0.6583)  ( 2.00    -0.6250)  ( 2.00    -0.5884)  ( 2.00    -0.5691)
                     ( 2.00    -0.5689)  ( 2.00    -0.5031)  ( 2.00    -0.5016)  ( 2.00    -0.5015)
                     ( 2.00    -0.4055)  ( 2.00    -0.4055)  ( 0.00    -0.2151)  ( 0.00    -0.2151)
                     ( 0.00    -0.0768)  ( 0.00    -0.0731)  ( 0.00    -0.0375)  ( 0.00    -0.0375)
                     ( 0.00    -0.0111)  ( 0.00    -0.0111)  ( 0.00     0.0270)  ( 0.00     0.0510)

 CYCLE    2
   MIX coefficients:  0.8000  0.2000
 SCF Error: norm([F,P])=      0.892322643968, max([F,P])=      0.187099237283
 orbitals (Q,E):
 ---------------
 A :12...22          ( 2.00    -0.5946)  ( 2.00    -0.5421)  ( 2.00    -0.5328)  ( 2.00    -0.5022)
                     ( 2.00    -0.5020)  ( 2.00    -0.4366)  ( 2.00    -0.4344)  ( 2.00    -0.4343)
                     ( 2.00    -0.3389)  ( 2.00    -0.3388)  ( 0.00    -0.1501)

 CYCLE    3
  SDIIS (wt  0.000): -1.2669  2.2669
 A-DIIS (wt  1.000):  0.0000  1.0000
  DIIS coefficients:  0.0000  1.0000
 SCF Error: norm([F,P])=      0.521451569331, max([F,P])=      0.102605043604
 orbitals (Q,E):
 ---------------
 A :12...22          ( 2.00    -0.3985)  ( 2.00    -0.3564)  ( 2.00    -0.2966)  ( 2.00    -0.2964)
                     ( 2.00    -0.2951)  ( 2.00    -0.2475)  ( 2.00    -0.2227)  ( 2.00    -0.2227)
                     ( 2.00    -0.1499)  ( 2.00    -0.1498)  ( 0.00     0.0285)

 CYCLE    4
  SDIIS (wt  0.000):  0.1837  0.3521  0.4642
 A-DIIS (wt  1.000):  0.0000  0.6402  0.3598
  DIIS coefficients:  0.0000  0.6402  0.3598
 SCF Error: norm([F,P])=      0.743250011345, max([F,P])=      0.172650297266
 orbitals (Q,E):
 ---------------
 A :12...22          ( 2.00    -0.4673)  ( 2.00    -0.4037)  ( 2.00    -0.3933)  ( 2.00    -0.3709)
                     ( 2.00    -0.3706)  ( 2.00    -0.3293)  ( 2.00    -0.2970)  ( 2.00    -0.2969)
                     ( 2.00    -0.2286)  ( 2.00    -0.2286)  ( 0.00    -0.0404)

 CYCLE    5
  SDIIS (wt  0.902): -0.0172  0.2159  0.0732  0.7280
 A-DIIS (wt  0.098):  0.0000  0.0000  0.0000  1.0000
  DIIS coefficients: -0.0155  0.1947  0.0660  0.7548
 SCF Error: norm([F,P])=      0.076223932029, max([F,P])=      0.010729900696
 orbitals (Q,E):
 ---------------
 A :12...22          ( 2.00    -0.4793)  ( 2.00    -0.4187)  ( 2.00    -0.4084)  ( 2.00    -0.3828)
                     ( 2.00    -0.3825)  ( 2.00    -0.3380)  ( 2.00    -0.3110)  ( 2.00    -0.3109)
                     ( 2.00    -0.2384)  ( 2.00    -0.2383)  ( 0.00    -0.0510)

 CYCLE    6
  SDIIS (wt  0.993): -0.0029  0.0315  0.0082  0.1926  0.7705
 A-DIIS (wt  0.007):  0.0000  0.0000  0.0000  0.0000  1.0000
  DIIS coefficients: -0.0028  0.0313  0.0082  0.1913  0.7721
 SCF Error: norm([F,P])=      0.010709327928, max([F,P])=      0.001695671268
 orbitals (Q,E):
 ---------------
 A :12...22          ( 2.00    -0.4790)  ( 2.00    -0.4180)  ( 2.00    -0.4073)  ( 2.00    -0.3826)
                     ( 2.00    -0.3824)  ( 2.00    -0.3374)  ( 2.00    -0.3104)  ( 2.00    -0.3103)
                     ( 2.00    -0.2377)  ( 2.00    -0.2376)  ( 0.00    -0.0502)

 CYCLE    7
  SDIIS (wt  1.000):  0.0009  0.0020  0.0002  0.0235  0.1236  0.8498
  DIIS coefficients:  0.0009  0.0020  0.0002  0.0235  0.1236  0.8498
 SCF Error: norm([F,P])=      0.001136440551, max([F,P])=      0.000271656649
 orbitals (Q,E):
 ---------------
 A :12...22          ( 2.00    -0.4791)  ( 2.00    -0.4181)  ( 2.00    -0.4075)  ( 2.00    -0.3827)
                     ( 2.00    -0.3824)  ( 2.00    -0.3376)  ( 2.00    -0.3105)  ( 2.00    -0.3104)
                     ( 2.00    -0.2379)  ( 2.00    -0.2378)  ( 0.00    -0.0504)

 CYCLE    8
  SDIIS (wt  1.000):  0.0005  0.0005  0.0000  0.0093  0.0525  0.4244  0.5126
  DIIS coefficients:  0.0005  0.0005  0.0000  0.0093  0.0525  0.4244  0.5126
 SCF Error: norm([F,P])=      0.000331382475, max([F,P])=      0.000081086303
 orbitals (Q,E):
 ---------------
 A :12...22          ( 2.00    -0.4791)  ( 2.00    -0.4181)  ( 2.00    -0.4075)  ( 2.00    -0.3827)
                     ( 2.00    -0.3825)  ( 2.00    -0.3376)  ( 2.00    -0.3105)  ( 2.00    -0.3105)
                     ( 2.00    -0.2379)  ( 2.00    -0.2378)  ( 0.00    -0.0504)

 CYCLE    9
  SDIIS (wt  1.000):  0.0001 -0.0002 -0.0000 -0.0004 -0.0008  0.0143  0.3268  0.6603
  DIIS coefficients:  0.0001 -0.0002 -0.0000 -0.0004 -0.0008  0.0143  0.3268  0.6603
 SCF Error: norm([F,P])=      0.000158181618, max([F,P])=      0.000039972734
 orbitals (Q,E):
 ---------------
 A :12...22          ( 2.00    -0.4791)  ( 2.00    -0.4181)  ( 2.00    -0.4075)  ( 2.00    -0.3827)
                     ( 2.00    -0.3825)  ( 2.00    -0.3376)  ( 2.00    -0.3105)  ( 2.00    -0.3105)
                     ( 2.00    -0.2379)  ( 2.00    -0.2378)  ( 0.00    -0.0504)

 CYCLE   10
  SDIIS (wt  1.000):  0.0000 -0.0001 -0.0000 -0.0002 -0.0004  0.0060  0.1444  0.2931  0.5571
  DIIS coefficients:  0.0000 -0.0001 -0.0000 -0.0002 -0.0004  0.0060  0.1444  0.2931  0.5571
 SCF Error: norm([F,P])=      0.000007724048, max([F,P])=      0.000001900972
 orbitals (Q,E):
 ---------------
 A :12...22          ( 2.00    -0.4791)  ( 2.00    -0.4181)  ( 2.00    -0.4075)  ( 2.00    -0.3827)
                     ( 2.00    -0.3825)  ( 2.00    -0.3376)  ( 2.00    -0.3105)  ( 2.00    -0.3105)
                     ( 2.00    -0.2379)  ( 2.00    -0.2378)  ( 0.00    -0.0504)

 CYCLE   11
  SDIIS (wt  1.000):  0.0000 -0.0000 -0.0000  0.0000 -0.0000 -0.0002 -0.0023 -0.0036  0.5163  0.4899
  DIIS coefficients:  0.0000 -0.0000 -0.0000  0.0000 -0.0000 -0.0002 -0.0023 -0.0036  0.5163  0.4899
 SCF Error: norm([F,P])=      0.000008023759, max([F,P])=      0.000002077233
 orbitals (Q,E):
 ---------------
 A :12...22          ( 2.00    -0.4791)  ( 2.00    -0.4181)  ( 2.00    -0.4075)  ( 2.00    -0.3827)
                     ( 2.00    -0.3825)  ( 2.00    -0.3376)  ( 2.00    -0.3105)  ( 2.00    -0.3105)
                     ( 2.00    -0.2379)  ( 2.00    -0.2378)  ( 0.00    -0.0504)

 CYCLE   12
  SDIIS (wt  1.000): -0.0000 -0.0000  0.0000 -0.0000 -0.0001 -0.0016 -0.0029  0.1456  0.1396  0.7194
  DIIS coefficients: -0.0000 -0.0000  0.0000 -0.0000 -0.0001 -0.0016 -0.0029  0.1456  0.1396  0.7194
 SCF Error: norm([F,P])=      0.000000107629, max([F,P])=      0.000000016283
 orbitals (Q,E):
 ---------------
 A :12...22          ( 2.00    -0.4791)  ( 2.00    -0.4181)  ( 2.00    -0.4075)  ( 2.00    -0.3827)
                     ( 2.00    -0.3825)  ( 2.00    -0.3376)  ( 2.00    -0.3105)  ( 2.00    -0.3105)
                     ( 2.00    -0.2379)  ( 2.00    -0.2378)  ( 0.00    -0.0504)

 SCF CONVERGED

 CYCLE   13
1
 ***************************************************************************************************



                                                *******************
                                                *  R E S U L T S  *
                                                *******************
  
 *** Using FIT density in Focky
  SDIIS (wt  1.000): -0.0000  0.0000 -0.0000 -0.0000 -0.0005 -0.0008  0.0420  0.0404  0.4078  0.5110
  DIIS coefficients: -0.0000  0.0000 -0.0000 -0.0000 -0.0005 -0.0008  0.0420  0.0404  0.4078  0.5110
 SCF Error: norm([F,P])=      0.000000071310, max([F,P])=      0.000000013596

 Orbital Energies, per Irrep and Spin:
 ======================================
                        Occup              E (au)              E (eV)       Diff (eV) with prev. cycle
                        -----      --------------------        ------       --------------------------
 A
              12        2.000     -0.47913287355768E+00       -13.038              -7.22E-09
              13        2.000     -0.41810970845416E+00       -11.377              -7.25E-09
              14        2.000     -0.40754963778490E+00       -11.090              -3.05E-11
              15        2.000     -0.38269296195364E+00       -10.414              -5.11E-09
              16        2.000     -0.38246956896230E+00       -10.408              -5.98E-09
              17        2.000     -0.33757864808805E+00        -9.186              -4.80E-09
              18        2.000     -0.31054155897947E+00        -8.450              -2.07E-09
              19        2.000     -0.31046366843309E+00        -8.448              -5.01E-09
              20        2.000     -0.23788036473098E+00        -6.473              -4.33E-09
              21        2.000     -0.23782180101221E+00        -6.471              -3.13E-09
              22        0.000     -0.50384792856470E-01        -1.371
              23        0.000     -0.50335328492141E-01        -1.370
              24        0.000      0.20340496635078E-02         0.055
              25        0.000      0.27838083795836E-01         0.758
              26        0.000      0.27862205676714E-01         0.758
              27        0.000      0.60712785351087E-01         1.652
              28        0.000      0.60762436613041E-01         1.653
              29        0.000      0.90657584180541E-01         2.467
              30        0.000      0.96118761335397E-01         2.616
              31        0.000      0.14212181046641E+00         3.867
  
 HOMO :       21 A                -0.23782180101221E+00
 LUMO :       22 A                -0.50384792856470E-01
  


 All Electron Calculation, thus no Orbital Energies of the Core Orbitals are calculated


 Fit test: (difference of exact and fit density, squared integrated, result summed over spins)
         Sum-of-Fragments:                             0.00000000048365
         Orthogonalized Fragments:                     0.00013298910490
         SCF:                                          0.00048706225757



 ==========================
 Electron Density at Nuclei
 ==========================
  
 The electron density is calculated at points on a small sphere around the center of a nucleus.
 The printed electron density is the average electron density on these points.
 The radius of the sphere is the printed approximate finite nuclear radius.

         Atom        Nuclear Radius (Angstrom)             Electron Density (a.u.)
         ----        -------------------------             -----------------------
     1)   C                 0.0000320678                              126.51441
     2)   C                 0.0000320678                              126.51571
     3)   C                 0.0000320678                              126.51464
     4)   C                 0.0000320678                              126.51441
     5)   C                 0.0000320678                              126.51571
     6)   C                 0.0000320678                              126.51461
     7)   H                 0.0000181514                                0.49874
     8)   H                 0.0000181514                                0.49869
     9)   H                 0.0000181514                                0.49864
    10)   H                 0.0000181514                                0.49874
    11)   H                 0.0000181514                                0.49864
    12)   H                 0.0000181514                                0.49864



 =======================================
 M U L L I K E N   P O P U L A T I O N S
 =======================================
  
 The survey below gives for each atom:
 a) the total charge (Z minus electrons)
 b) the net spin polarization (nr of electrons spin-A minus spin-B)
 c) for each spin the atomic electron valence density (integrated) per L-value.

 Atom              Charge    Spin density          S         P         D         F
 ----              ------    ------------       ------    ------    ------    ------
 1 C               0.1754                       3.0649    2.6987    0.0610    0.0000
 2 C               0.1757                       3.0649    2.6984    0.0610    0.0000
 3 C               0.1755                       3.0650    2.6985    0.0610    0.0000
 4 C               0.1754                       3.0649    2.6987    0.0610    0.0000
 5 C               0.1757                       3.0649    2.6984    0.0610    0.0000
 6 C               0.1755                       3.0650    2.6985    0.0610    0.0000
 7 H              -0.1759                       1.1045    0.0715    0.0000    0.0000
 8 H              -0.1757                       1.1042    0.0714    0.0000    0.0000
 9 H              -0.1750                       1.1037    0.0714    0.0000    0.0000
 10 H             -0.1759                       1.1045    0.0715    0.0000    0.0000
 11 H             -0.1756                       1.1042    0.0714    0.0000    0.0000
 12 H             -0.1750                       1.1037    0.0714    0.0000    0.0000

 Populations of individual BAS functions
 ----------------------------------------
 1 C            0.4869  1.5144  0.2298  0.8872 -0.0535 -0.1033  0.1475 -0.2378  0.8054  0.6780
                0.8823  0.2001  0.1366  0.1899  0.0268  0.0122  0.0174 -0.0175  0.0040  0.0181
 2 C            0.4870  1.5144  0.2297  0.8874 -0.0535 -0.2025  0.1473 -0.1396  0.8621  0.6781
                0.8264  0.1926  0.1366  0.1973  0.0181  0.0062  0.0220 -0.0175  0.0100  0.0222
 3 C            0.4870  1.5144  0.2298  0.8873 -0.0535 -0.2072  0.1474 -0.1344  0.8647  0.6781
                0.8235  0.1922  0.1366  0.1977  0.0180  0.0059  0.0216 -0.0175  0.0103  0.0227
 4 C            0.4869  1.5144  0.2298  0.8872 -0.0535 -0.1033  0.1475 -0.2378  0.8054  0.6780
                0.8823  0.2001  0.1366  0.1899  0.0268  0.0122  0.0174 -0.0175  0.0040  0.0181
 5 C            0.4870  1.5144  0.2297  0.8874 -0.0535 -0.2024  0.1473 -0.1396  0.8621  0.6781
                0.8264  0.1926  0.1366  0.1973  0.0181  0.0062  0.0220 -0.0175  0.0100  0.0222
 6 C            0.4870  1.5144  0.2298  0.8873 -0.0535 -0.2072  0.1474 -0.1344  0.8647  0.6781
                0.8235  0.1922  0.1366  0.1977  0.0180  0.0059  0.0216 -0.0175  0.0103  0.0227
 7 H            0.2098  0.5759  0.3188  0.0288  0.0217  0.0209
 8 H            0.2093  0.5761  0.3188  0.0295  0.0217  0.0202
 9 H            0.2085  0.5762  0.3189  0.0162  0.0217  0.0334
 10 H           0.2097  0.5759  0.3188  0.0288  0.0217  0.0209
 11 H           0.2093  0.5762  0.3188  0.0295  0.0217  0.0202
 12 H           0.2085  0.5762  0.3189  0.0162  0.0217  0.0334

 Gross Charges per Atom (Z minus electrons)
 ==========================================
             0.1754    0.1757    0.1755    0.1754    0.1757    0.1755   -0.1759   -0.1757   -0.1750   -0.1759
            -0.1756   -0.1750
 Net Total: -0.00000000


 Atom-Atom Population Matrix (off-diagonal elements not doubled)
 ===============================================================

     1 :     4.5229
     2 :     0.5417    4.5223
     3 :    -0.0106    0.5417    4.5223
     4 :    -0.0557   -0.0106    0.5418    4.5229
     5 :    -0.0106   -0.0555   -0.0107    0.5417    4.5222
     6 :     0.5418   -0.0107   -0.0555   -0.0106    0.5417    4.5224
     7 :    -0.0536    0.3939   -0.0535    0.0022    0.0041    0.0021    0.9822
     8 :     0.0022   -0.0535    0.3939   -0.0537    0.0022    0.0041   -0.0476    0.9818
     9 :     0.0041    0.0021   -0.0534    0.3939   -0.0534    0.0021   -0.0038   -0.0476    0.9808
    10 :     0.0022    0.0041    0.0021   -0.0536    0.3939   -0.0535    0.0015   -0.0038   -0.0476    0.9822
    11 :    -0.0537    0.0022    0.0041    0.0022   -0.0535    0.3939   -0.0038    0.0015   -0.0038   -0.0476
             0.9818
    12 :     0.3939   -0.0534    0.0021    0.0041    0.0021   -0.0534   -0.0476   -0.0038    0.0016   -0.0038
            -0.0476    0.9808



 =================================================
 H I R S H F E L D   C H A R G E   A N A L Y S I S
 =================================================
  
 For each fragment: the (numerical) integral of rho(scf) * rho(fragment)/rho(sum-of-fragments)
 (nuclear charges are included, electrons are counted negative)

 The fragments and their ordering are defined in the early G E O M E T R Y output section.
 If you use single-atom fragments, this usually implies that all atoms of the same
 chemical type are grouped together. This may not be the order in which you listed them
 in the input file!

    1  C                        -0.0463
    2  C                        -0.0463
    3  C                        -0.0463
    4  C                        -0.0463
    5  C                        -0.0463
    6  C                        -0.0463
    7  H                         0.0463
    8  H                         0.0463
    9  H                         0.0462
   10  H                         0.0463
   11  H                         0.0463
   12  H                         0.0462

 Sum of these charges (accuracy NumInt/Tails) =          -0.00005968



 =============================
 V O R O N O I   C H A R G E S
 =============================
  
 For each atom: the (numerical) integral of the total electronic charge density in its Voronoi cell,
 i.e. the region of space that is closer to that atom than to any other atom.
 (cf. Wigner-Seitz cells in crystals)

 Within the Voronoi cell the subintegrals over the atomic sphere and the remaining part are evaluated
 separately to give the numbers of electrons (negative charge) in these regions.
 The net total charge in the cell (including the nuclear charge) is also given.

 Values are provided for
    a) the Initial (sum-of-fragments) density
    b) the Orthogonalized-Fragments density
    c) the SCF density
    d) the Voronoi Deformation Density (VDD): the difference SCF-Initial for the complete atomic cell


  Atom                Initial                    OrthFrag                   SCF
             Sphere RestCell NetTotal   Sphere RestCell NetTotal   Sphere RestCell NetTotal      VDD
 -----       ------------------------   ------------------------   ------------------------    -----
    1 C      -2.269   -3.186    0.545   -2.452   -3.138    0.410   -2.303   -3.208    0.489   -0.056
    2 C      -2.269   -3.191    0.541   -2.452   -3.137    0.411   -2.303   -3.208    0.489   -0.051
    3 C      -2.269   -3.189    0.542   -2.452   -3.142    0.406   -2.303   -3.211    0.486   -0.056
    4 C      -2.269   -3.186    0.545   -2.452   -3.138    0.410   -2.303   -3.208    0.489   -0.056
    5 C      -2.269   -3.191    0.541   -2.452   -3.137    0.411   -2.303   -3.208    0.489   -0.051
    6 C      -2.269   -3.189    0.542   -2.452   -3.142    0.406   -2.303   -3.211    0.486   -0.056
    7 H      -0.075   -1.473   -0.548   -0.096   -1.317   -0.413   -0.109   -1.384   -0.493    0.055
    8 H      -0.075   -1.465   -0.540   -0.096   -1.310   -0.406   -0.109   -1.376   -0.484    0.056
    9 H      -0.075   -1.466   -0.541   -0.096   -1.312   -0.408   -0.109   -1.379   -0.488    0.053
   10 H      -0.075   -1.473   -0.548   -0.096   -1.317   -0.413   -0.109   -1.384   -0.493    0.055
   11 H      -0.075   -1.465   -0.540   -0.096   -1.310   -0.406   -0.109   -1.376   -0.484    0.056
   12 H      -0.075   -1.466   -0.541   -0.096   -1.312   -0.408   -0.109   -1.379   -0.488    0.053
 ---------------------------------------------------------------------------------------------------
 Total NetCharge:              -0.000                     -0.000                     -0.000    0.000
 (accuracy NumInt/Tails)

 Remark: the 'NetTotal' Voronoi charges often do not match the Mulliken and/or Hirshfeld charges very
 well. This is caused by the fact that chemically different atoms are not treated in accordance with
 their relative sizes. (Voronoi cells are defined by boundary planes halfway between the atoms.)
 However, the CHANGES in charge, comparing 'Initial' to 'SCF' for instance, do give a fair indication
 of the flow of charge caused by the relaxation from sum-of-fragments to self-consistency.

 Warning: the absolute accuracy of the VDD charges obtained using the Fuzzy Cells (Becke) integration
 scheme is much poorer than the one obtained with an 'equivalent' Voronoi integration grid. 



 =================================================================
 M U L T I P O L E   D E R I V E D   C H A R G E   A N A L Y S I S
 =================================================================

 This charge analysis uses the atomic multipoles (obtained from the fitted density) up to some level X,
 and reconstructs these multipoles exactly (up to level X) by distributing charges over all atoms.
 This is achieved by using Lagrange multipliers and a weight function to keep the multipoles local.

 Dummy atoms can be included (by setting INCDUM in MDC-block to 1) to obtain a fractional charge.
 This is generally useful and necessary only for small symmetrical molecules, when there are not
 enough degrees of freedom to reconstruct the multipoles.

 Since the atomic multipoles are reconstructed up to level X,
 the molecular multipoles are represented also up to level X.
 The recommended level is to reconstruct up to quadrupole : -> MDC-q charges.

 See: M. Swart, P.Th. van Duijnen, J.G. Snijders, J.Comput.Chem., (2001), p. 79-88.

 ------------------------------------------------------------- 
 Atomic electronic multipole moments from SCF equations (a.u.)
 ------------------------------------------------------------- 

   atom        charge        dip-x     dip-y     dip-z      quad-xx   quad-xy   quad-xz   quad-yy   quad-yz   quad-zz
 --------------------------------------------------------------------------------------------------------------------
    1 C      0.060864     0.000982  0.001069 -0.047124     0.468902  0.000037 -0.000742 -0.996623 -0.001790  0.527721
    2 C      0.060456    -0.042069  0.000478 -0.025613     0.508741 -0.000663  0.014898 -0.993831 -0.000440  0.485090
    3 C      0.060593    -0.042466 -0.000603  0.023418     0.512313  0.000868 -0.015005 -0.994878 -0.000510  0.482565
    4 C      0.060865    -0.001005 -0.001069  0.047125     0.468916  0.000038 -0.000788 -0.996625 -0.001790  0.527710
    5 C      0.060455     0.042067 -0.000476  0.025612     0.508749 -0.000661  0.014902 -0.993828 -0.000439  0.485080
    6 C      0.060585     0.042440  0.000605 -0.023392     0.512332  0.000871 -0.014982 -0.994875 -0.000511  0.482543
    7 H     -0.060625    -0.019453  0.000109 -0.011860     0.160298 -0.000313  0.080511 -0.195371 -0.000251  0.035073
    8 H     -0.060618    -0.019829 -0.000140  0.010960     0.170653  0.000416 -0.076618 -0.195671 -0.000284  0.025018
    9 H     -0.060672    -0.000497 -0.000246  0.022628    -0.038562  0.000021 -0.003877 -0.194889 -0.000893  0.233452
   10 H     -0.060625     0.019453 -0.000109  0.011861     0.160299 -0.000311  0.080514 -0.195370 -0.000251  0.035071
   11 H     -0.060607     0.019849  0.000140 -0.010961     0.170660  0.000418 -0.076611 -0.195666 -0.000285  0.025006
   12 H     -0.060671     0.000480  0.000246 -0.022629    -0.038567  0.000021 -0.003859 -0.194888 -0.000893  0.233455

 --------------------------------------- 
 Multipole derived atomic charges (a.u.)
 --------------------------------------- 

 The MDC-m charges are just the Monopole terms in the multipole expansion, while for the MDC-d charges
 also the Dipoles are reconstructed. The usually preferred charges are the MDC-q charges.
 These reconstruct the Monopoles, Dipoles and Quadrupoles (both atomic AND molecular).

        Atom    Level:     MDC-m        MDC-d        MDC-q
 ---------------------------------------------------------
     1     C            0.060864    -0.248267    -0.029439
     2     C            0.060456    -0.001166    -0.197835
     3     C            0.060593    -0.057355    -0.154779
     4     C            0.060865    -0.248588    -0.029161
     5     C            0.060455    -0.000469    -0.198198
     6     C            0.060585    -0.057889    -0.154375
     7     H           -0.060625     0.062293     0.149732
     8     H           -0.060618     0.080439     0.135982
     9     H           -0.060672     0.164210     0.096154
    10     H           -0.060625     0.062027     0.149861
    11     H           -0.060607     0.080612     0.135823
    12     H           -0.060671     0.164153     0.096236

 ------------------------------------------------ 
 Average absolute deviations in atomic multipoles
 ------------------------------------------------ 

 Stated here are the average differences between the atomic multipoles
 and the reconstructed atomic multipoles (from the distributed charges).
 If these values are not zero, this means there are not enough degrees of freedom,
 to be able to reconstruct the atomic multipoles. (This usually happens only
 for small and/or highly symmetric molecules). If this is the case, one could add
 dummy atoms as extra point charges (and setting INCDUM in MDC-block to 1).

 Level:                                 MDC-d        MDC-q
 ---------------------------------------------------------
 Charge   (a.u.)                       0.0000       0.0000
 Dipole   (Debye)                      0.0000       0.0000
 Quad.    (a.u.)                       0.0918       0.0000

 --------------------------------------- 
 Represented molecular multipole moments
 --------------------------------------- 

 Given here are the Molecular multipole moments from the atomic charges, and from the Fit Density.
 Note that the atomic charges represent the latter, NOT the ones from the Exact density.

            Q (a.u.)             Dipole moment (Debye)                                          Quadrupole moment (a.u.)
                                 x         y         z              xx        xy        xz        yy        yz        zz
------------------------------------------------------------------------------------------------------------------------
MDC-m         0.0000        0.0001   -0.0000   -0.0000         -1.3797   -0.0004   -0.0014    2.7586    0.0078   -1.3789
MDC-d         0.0000       -0.0001    0.0000    0.0000          1.5402    0.0015   -0.0465   -4.6541   -0.0177    3.1139
MDC-q         0.0000       -0.0001    0.0000    0.0000          2.9009    0.0007    0.0052   -5.7909   -0.0141    2.8901
 
Fit.Dens.     0.0000       -0.0001    0.0000    0.0000          2.9009    0.0014    0.0044   -5.7909   -0.0186    2.8901



 =============
 Dipole Moment  ***  (Debye)  ***
 =============
  
 Vector   :        -0.00006062      0.00000661      0.00003086
 Magnitude:         0.00006834

 This molecular dipole moment is calculated with analytic integration



 =========================================
 Quadrupole Moment (Buckingham convention)  ***  (a.u.)  ***
 =========================================
  
      quad-xx        quad-xy        quad-xz        quad-yy        quad-yz        quad-zz
      2.91226369     0.00182518     0.00261139    -5.81928954    -0.02303923     2.90702584

 This molecular quadrupole moment is calculated with analytic integration
1



 =======================================================
 S F O   P O P U L A T I O N S ,   M O   A N A L Y S I S
 =======================================================
  
 A Mulliken population analysis is performed on (input-)selected MOs. All populations refer to SFOs.
 BAS populations may have been printed directly after the SCF part.


                                       === A ===


 SFO contributions (%) per orbital
 (multiplication by the orbital occupation yields the SFO Gross Populations)

 Orb.:       12     13     14     15     16     17     18     19     20     21     22     23     24     25
 occup:     2.00   2.00   2.00   2.00   2.00   2.00   2.00   2.00   2.00   2.00   0.00   0.00   0.00   0.00
 CF+SFO     ----   ----   ----   ----   ----   ----   ----   ----   ----   ----   ----   ----   ----   ----
 ------
      2:    0.24   4.04   0.00   0.00   0.03  -0.00  -0.00  -0.06   0.00   0.00   0.00   0.00  -0.24   0.01
      3:   -0.08   0.11   0.00  -0.00  -0.18  -0.00  -0.00  -0.02   0.00   0.00   0.00   0.00  -2.69  -0.10
      6:    0.01   0.00  14.44   0.43  -0.00   0.00   9.00   0.18   0.00   0.00   0.00   0.00   0.00  -1.73
      7:    0.00   0.00   2.00   0.66   0.00  -0.00   2.99   0.06   0.00   0.00   0.00   0.00  -0.00  -8.07
      9:    0.00   0.00   0.00   0.00   0.00  17.22   0.00   0.00   0.27  31.49   0.45  34.05   0.00  -0.00
     10:   -0.00   0.00   0.00  -0.00  -0.00  -0.98   0.00   0.00   0.00   0.11  -0.05  -3.80  -0.00  -0.00
     12:   10.70   2.58   0.01   0.31  17.49   0.00   0.13   5.74   0.00   0.00   0.00   0.00   0.73   0.15
     13:    0.23   0.28   0.00   0.01   1.25   0.00   0.04   1.43   0.00   0.00  -0.00  -0.00  -0.51  -1.73
     17:    0.00   0.00   0.00   0.00   0.00   0.00   0.00   0.00   0.60   0.00   1.12   0.02  -0.00   0.00
     21:    0.24   4.02   0.00   0.03   0.01  -0.00  -0.05  -0.01   0.00   0.00   0.00   0.00  -0.24   0.01
     22:   -0.08   0.11   0.00  -0.16  -0.03  -0.00  -0.02  -0.00   0.00   0.00   0.00   0.00  -2.69  -0.21
     25:    7.82   1.94   3.88  10.12   2.95   0.00   6.48   0.27   0.00   0.00   0.00   0.00   0.53  -0.74
     26:    0.17   0.21   0.54   0.24   0.86   0.00   1.99  -0.09   0.00  -0.00  -0.00   0.00  -0.37  -8.91
     28:    0.00   0.00   0.00   0.00   0.00  17.22   0.00   0.00  26.21   5.55  22.26  12.24   0.00   0.00
     29:   -0.00   0.00   0.00  -0.00  -0.00  -0.98   0.00   0.00   0.10   0.02  -2.49  -1.37  -0.00   0.00
     31:    2.88   0.71  10.59   5.12  -0.07   0.00  -0.12   8.39   0.00   0.00   0.00   0.00   0.19  -0.37
     32:    0.06   0.07   1.46   0.93  -0.11  -0.00  -0.28   2.91  -0.00   0.00   0.00  -0.00  -0.14  -1.14
     40:    0.24   4.03   0.00   0.02   0.02  -0.00  -0.04  -0.02   0.00   0.00   0.00   0.00  -0.24   0.04
     41:   -0.08   0.11   0.00  -0.11  -0.07  -0.00  -0.01  -0.01   0.00   0.00  -0.00   0.00  -2.69  -0.60
     44:    8.21   2.02   3.34   7.25   6.48   0.00   6.79  -0.16   0.00   0.00   0.00   0.00   0.56   0.45
     45:    0.18   0.22   0.46  -0.09   1.21   0.00   2.19  -0.35   0.00   0.00  -0.00   0.00  -0.39  -9.32
     47:    0.00   0.00   0.00   0.00   0.00  17.22   0.00   0.00  21.16  10.60  29.04   5.46   0.00   0.00
     48:   -0.00   0.00   0.00   0.00  -0.00  -0.98   0.00   0.00   0.08   0.04  -3.24  -0.61  -0.00  -0.00
     50:    2.49   0.61  11.13   4.01   0.41   0.00   0.27   8.13  -0.00   0.00   0.00   0.00   0.17   0.26
     51:    0.06   0.06   1.54   1.13  -0.33  -0.00  -0.15   2.83  -0.00   0.00   0.00  -0.00  -0.12  -1.75
     59:    0.24   4.04   0.00   0.00   0.03  -0.00  -0.00  -0.06   0.00   0.00   0.00   0.00  -0.24   0.01
     60:   -0.08   0.11   0.00  -0.00  -0.18  -0.00  -0.00  -0.02   0.00   0.00   0.00   0.00  -2.69  -0.11
     63:    0.01   0.00  14.44   0.43  -0.00   0.00   9.00   0.18   0.00   0.00   0.00   0.00   0.00  -1.73
     64:    0.00   0.00   2.00   0.67   0.00  -0.00   2.99   0.06   0.00   0.00   0.00   0.00  -0.00  -8.07
     66:    0.00   0.00   0.00   0.00   0.00  17.22   0.00   0.00   0.27  31.49   0.45  34.05   0.00  -0.00
     67:   -0.00   0.00   0.00  -0.00  -0.00  -0.98   0.00   0.00   0.00   0.11  -0.05  -3.80  -0.00  -0.00
     69:   10.70   2.58   0.01   0.31  17.49   0.00   0.13   5.74   0.00   0.00   0.00   0.00   0.73   0.15
     70:    0.23   0.28   0.00   0.01   1.25   0.00   0.04   1.43   0.00   0.00  -0.00  -0.00  -0.51  -1.73
     74:    0.00   0.00   0.00   0.00   0.00   0.00   0.00   0.00   0.60   0.00   1.12   0.02  -0.00   0.00
     78:    0.24   4.02   0.00   0.03   0.01  -0.00  -0.05  -0.01   0.00   0.00   0.00   0.00  -0.24   0.01
     79:   -0.08   0.11   0.00  -0.16  -0.03  -0.00  -0.02  -0.00   0.00   0.00   0.00   0.00  -2.69  -0.21
     82:    7.82   1.94   3.88  10.13   2.95   0.00   6.48   0.27   0.00   0.00   0.00   0.00   0.53  -0.74
     83:    0.17   0.21   0.54   0.24   0.86   0.00   1.99  -0.09   0.00  -0.00  -0.00   0.00  -0.37  -8.91
     85:    0.00   0.00   0.00   0.00   0.00  17.22   0.00   0.00  26.21   5.55  22.26  12.24   0.00   0.00
     86:   -0.00   0.00   0.00  -0.00  -0.00  -0.98   0.00   0.00   0.10   0.02  -2.49  -1.37  -0.00   0.00
     88:    2.88   0.71  10.60   5.12  -0.07   0.00  -0.12   8.39   0.00   0.00   0.00   0.00   0.19  -0.37
     89:    0.06   0.08   1.46   0.93  -0.11  -0.00  -0.28   2.91  -0.00   0.00   0.00  -0.00  -0.13  -1.14
     97:    0.24   4.03   0.00   0.02   0.02  -0.00  -0.04  -0.02   0.00   0.00   0.00   0.00  -0.24   0.04
     98:   -0.08   0.11   0.00  -0.11  -0.07  -0.00  -0.01  -0.01   0.00   0.00  -0.00   0.00  -2.69  -0.60
    101:    8.21   2.02   3.34   7.25   6.48   0.00   6.79  -0.16   0.00   0.00   0.00   0.00   0.56   0.46
    102:    0.18   0.22   0.46  -0.09   1.21   0.00   2.19  -0.35   0.00   0.00  -0.00   0.00  -0.39  -9.32
    104:    0.00   0.00   0.00   0.00   0.00  17.22   0.00   0.00  21.16  10.60  29.04   5.46   0.00   0.00
    105:   -0.00   0.00   0.00   0.00  -0.00  -0.98   0.00   0.00   0.08   0.04  -3.24  -0.61  -0.00  -0.00
    107:    2.49   0.61  11.13   4.01   0.41   0.00   0.27   8.13  -0.00   0.00   0.00   0.00   0.17   0.26
    108:    0.05   0.06   1.54   1.13  -0.33  -0.00  -0.15   2.83  -0.00   0.00   0.00  -0.00  -0.12  -1.75
    115:    5.54   9.20   0.00  11.08   1.84   0.00  11.30   2.05   0.00   0.00   0.00   0.00   7.80   7.41
    116:   -0.02   0.16  -0.00   0.13   0.02  -0.00  -0.17  -0.03  -0.00  -0.00  -0.00   0.00  11.27  11.01
    121:    5.54   9.17   0.00   8.13   4.83   0.00   8.53   4.82   0.00   0.00   0.00   0.00   7.81  21.79
    122:   -0.02   0.16   0.00   0.10   0.06  -0.00  -0.13  -0.07  -0.00   0.00  -0.00   0.00  11.28  32.38
    125:    0.00   0.00   0.00   0.00   0.00   0.25  -0.00   0.00   0.55   0.28   1.15   0.22   0.00   0.00
    127:    5.53   9.09   0.00   0.24  12.77   0.00   0.20  13.17   0.00   0.00   0.00   0.00   7.81   3.78
    128:   -0.02   0.16  -0.00   0.00   0.16  -0.00  -0.00  -0.19  -0.00   0.00  -0.00  -0.00  11.28   5.62
    131:    0.00   0.00  -0.00  -0.00  -0.00   0.25  -0.00  -0.00   0.01   0.82   0.02   1.35   0.00   0.00
    133:    5.54   9.20   0.00  11.08   1.84   0.00  11.30   2.05   0.00   0.00   0.00   0.00   7.80   7.40
    134:   -0.02   0.16  -0.00   0.13   0.02  -0.00  -0.17  -0.03  -0.00  -0.00  -0.00   0.00  11.27  11.01
    139:    5.54   9.17   0.00   8.13   4.83   0.00   8.53   4.82   0.00   0.00   0.00   0.00   7.82  21.79
    140:   -0.02   0.16   0.00   0.10   0.06  -0.00  -0.13  -0.07  -0.00   0.00  -0.00   0.00  11.29  32.37
    143:    0.00   0.00   0.00   0.00   0.00   0.25  -0.00   0.00   0.55   0.28   1.15   0.22   0.00   0.00
    145:    5.53   9.09   0.00   0.24  12.77   0.00   0.20  13.17   0.00   0.00   0.00   0.00   7.81   3.77
    146:   -0.02   0.16  -0.00   0.00   0.16  -0.00  -0.00  -0.19  -0.00   0.00  -0.00  -0.00  11.28   5.61
    149:    0.00   0.00  -0.00  -0.00  -0.00   0.25  -0.00  -0.00   0.01   0.82   0.02   1.35   0.00   0.00


 Summation over all MOs, multiplied by occupation: Total SFO Gross Populations in this Irrep
 ===========================================================================================

     2.00    1.07   -0.01   -0.00   -0.00    0.84    0.07   -0.01    0.98   -0.02   -0.00    0.81
     0.03   -0.01    0.02    0.01    0.01    0.02    0.00    2.00    1.07   -0.01   -0.00   -0.00
     0.82    0.04   -0.01    0.98   -0.02   -0.00    0.83    0.06   -0.01    0.02    0.01    0.01
     0.02    0.01    2.00    1.07   -0.01   -0.00   -0.00    0.82    0.04   -0.01    0.98   -0.02
    -0.00    0.83    0.06   -0.01    0.02    0.01    0.01    0.02    0.01    2.00    1.07   -0.01
    -0.00   -0.00    0.84    0.07   -0.01    0.98   -0.02   -0.00    0.81    0.03   -0.01    0.02
     0.01    0.01    0.02    0.00    2.00    1.07   -0.01   -0.00   -0.00    0.82    0.04   -0.01
     0.98   -0.02   -0.00    0.83    0.06   -0.01    0.02    0.01    0.01    0.02    0.01    2.00
     1.07   -0.01   -0.00   -0.00    0.82    0.04   -0.01    0.98   -0.02   -0.00    0.83    0.06
    -0.01    0.02    0.01    0.01    0.02    0.01    1.11   -0.00   -0.00    0.03    0.02    0.02
     1.11   -0.00   -0.00    0.03    0.02    0.02    1.11   -0.00   -0.00    0.02    0.02    0.03
     1.11   -0.00   -0.00    0.03    0.02    0.02    1.11   -0.00   -0.00    0.03    0.02    0.02
     1.11   -0.00   -0.00    0.02    0.02    0.03



 List of all MOs, ordered by energy, with the most significant SFO gross populations
 ===================================================================================

 Each percentage contribution in the table below corresponds to the indicated SFO.
 In general, a SFO may be a linear combination of several Fragment Orbitals on the same,
 or on symmetry-related Fragments. Only the first 'member' of such a combination is
 specified here. A full definition of all SFOs is given in an earlier part of the output.
 The numbering of the SFOs in this table does NOT include the Core Orbitals, and starts
 from one for each symmetry representation, as in the SFO definition list earlier.

       E(eV)  Occ       MO           %     SFO (first member)   E(eV)  Occ   Fragment
 -------------------------------------------------------------------------------------

     -21.394  2.00     7 A         14.60%     2 S             -13.876  2.00     2 C
                                   14.60%     2 S             -13.876  2.00     5 C
                                   14.60%     2 S             -13.876  2.00     4 C
                                   14.60%     2 S             -13.876  2.00     1 C
                                   14.59%     2 S             -13.876  2.00     3 C
                                   14.59%     2 S             -13.876  2.00     6 C
                                    2.37%     1 P:z            -5.403  0.67     4 C
                                    2.37%     1 P:z            -5.403  0.67     1 C
                                    1.82%     1 P:x            -5.403  0.67     6 C
                                    1.82%     1 P:x            -5.403  0.67     3 C
                                    1.74%     1 P:x            -5.403  0.67     5 C
                                    1.74%     1 P:x            -5.403  0.67     2 C
                                    1.24%     1 S              -6.626  1.00     7 H
                                    1.24%     1 S              -6.626  1.00    10 H
                                    1.24%     1 S              -6.626  1.00     8 H
                                    1.24%     1 S              -6.626  1.00    11 H
                                    1.23%     1 S              -6.626  1.00     9 H
                                    1.23%     1 S              -6.626  1.00    12 H
     -18.622  2.00     8 A         20.77%     2 S             -13.876  2.00     5 C
                                   20.77%     2 S             -13.876  2.00     2 C
                                   12.88%     2 S             -13.876  2.00     6 C
                                   12.88%     2 S             -13.876  2.00     3 C
                                    5.51%     1 P:x            -5.403  0.67     4 C
                                    5.51%     1 P:x            -5.403  0.67     1 C
                                    5.12%     1 S              -6.626  1.00    10 H
                                    5.12%     1 S              -6.626  1.00     7 H
                                    3.17%     1 S              -6.626  1.00     8 H
                                    3.17%     1 S              -6.626  1.00    11 H
                                    2.37%     1 P:z            -5.403  0.67     6 C
                                    2.37%     1 P:z            -5.403  0.67     3 C
                                   -1.63%     2 P:x             4.709  0.00     4 C
                                   -1.63%     2 P:x             4.709  0.00     1 C
     -18.619  2.00     9 A         22.12%     2 S             -13.876  2.00     1 C
                                   22.12%     2 S             -13.876  2.00     4 C
                                   10.18%     2 S             -13.876  2.00     3 C
                                   10.18%     2 S             -13.876  2.00     6 C
                                    5.45%     1 S              -6.626  1.00    12 H
                                    5.45%     1 S              -6.626  1.00     9 H
                                    3.49%     1 P:z            -5.403  0.67     2 C
                                    3.49%     1 P:z            -5.403  0.67     5 C
                                    2.51%     1 S              -6.626  1.00     8 H
[...]
 iter.  9 V(1) measure  0.8938937345666E+05
        9        delta  0.3501586577768E+00
 CRIT  2.578258399890541E-002
 iter. 10 V(1) measure  0.8938931583323E+05
       10        delta  0.5762343524839E-01
 *** convergence reached

    RRIJmat_z_z         
    using first order VWN potential
 
    NOTE: We will NOT use the GGA kernel (input option ALDA was set)
 
 CRIT   1.00000000000000     
 iter.  1 V(1) measure  0.1302536143352E+04
 *** convergence criterion : .1302536E-02
 CRIT   158.856857613144     
 iter.  2 V(1) measure  0.1073543482505E+04
        2        delta  0.2289926608473E+03
 CRIT   60.1827212668376     
 iter.  3 V(1) measure  0.1108587897364E+04
        3        delta  0.3504441485960E+02
 CRIT   10.7604049065440     
 iter.  4 V(1) measure  0.1112655714226E+04
        4        delta  0.4067816862106E+01
 CRIT   8.32885971574640     
 iter.  5 V(1) measure  0.1115199801259E+04
        5        delta  0.2544087032644E+01
 CRIT   2.15874512348547     
 iter.  6 V(1) measure  0.1115640273285E+04
        6        delta  0.4404720259613E+00
 CRIT  0.876826608365532     
 iter.  7 V(1) measure  0.1115752356821E+04
        7        delta  0.1120835365434E+00
 CRIT  0.648194647827684     
 iter.  8 V(1) measure  0.1115755673891E+04
        8        delta  0.3317069656305E-02
 CRIT  7.061602021144744E-002
 iter.  9 V(1) measure  0.1115753211050E+04
        9        delta  0.2462840911676E-02
 CRIT  4.893139682238099E-002
 iter. 10 V(1) measure  0.1115751532465E+04
       10        delta  0.1678585253103E-02
 CRIT  7.073560536022272E-003
 iter. 11 V(1) measure  0.1115751822299E+04
       11        delta  0.2898339735111E-03
 *** convergence reached
 ------------------------------------------
 Convergence acceleration: T
 QUADRUPOLE-QUADRUPOLE POLARIZABILITY     
 Frequency  =  0.1322975682     Hartrees
 Wavelength =   344.4005294     nm
 Wavenumber =   29035.96001     cm^{-1}
 Energy     =   3.600000000     eV
 ------------------------------------------
 QUADRUPOLE-QUADRUPOLE Polarizability tensor:
 
 xx xx     4188.86204308676     
 xx xy    0.278904547474842     
 xx xz   -0.194686378060718     
 xx yy    -4991.66231368337     
 xx yz    -1.23508856606908     
 xx zz     802.800270596613     
 xy xx    0.279258908607769     
 xy xy     12591.5523317146     
 xy xz   -0.329989158456903     
 xy yy   -0.292729177917063     
 xy yz   -0.678560735791473     
 xy zz    1.347026932845016E-002
 xz xx   -0.195129796144825     
 xz xy   -0.333131930016752     
 xz xz     1693.66224402420     
 xz yy    0.148176012599717     
 xz yz    4.154850955927183E-002
 xz zz    4.695378354420000E-002
 yy xx    -4991.67606586570     
 yy xy   -0.292222531686100     
 yy xz    0.143250573347999     
 yy yy     9983.67385972538     
 yy yz     2.84361716594097     
 yy zz    -4991.99779385964     
 yz xx    -1.23368191087019     
 yz xy   -0.708995766205596     
 yz xz    4.116946825007259E-002
 yz yy     2.83553297854628     
 yz yz     12590.9668786303     
 yz zz    -1.60185106770658     
 zz xx     802.810479069418     
 zz xy    1.327602316808592E-002
 zz xz    5.321282109324919E-002
 zz yy    -4991.98802622974     
 zz yz    -1.60580900730331     
 zz zz     4189.17754716034     
 
 Imaginary QUADRUPOLE-QUADRUPOLE Polarizability tensor:
 
 xx xx     18.7030734043368     
 xx xy    7.226222385622223E-003
 xx xz   -1.877313865879693E-003
 xx yy    -21.5503019939692     
 xx yz   -8.862632107305492E-002
 xx zz     2.84722858963238     
 xy xx    7.497655873866440E-003
 xy xy     124.988849665497     
 xy xz    7.879088940632391E-003
 xy yy   -1.488942860627658E-002
 xy yz    2.846368792004658E-004
 xy zz    7.391772732443293E-003
 xz xx   -1.710832483591705E-003
 xz xy    7.828157640466234E-003
 xz xz     7.93265679757242     
 xz yy    1.211955679019369E-003
 xz yz   -6.770685824383948E-004
 xz zz    4.988768045787852E-004
 yy xx    -21.5276260404591     
 yy xy   -1.492253687957286E-002
 yy xz    1.378548064153710E-003
 yy yy     43.0600743605984     
 yy yz    0.157845828108196     
 yy zz    -21.5324483201393     
 yz xx   -8.842511275890647E-002
 yz xy    1.111662650836580E-003
 yz xz   -6.436897233440764E-004
 yz yy    0.157834270181998     
 yz yz     124.956547202488     
 yz zz   -6.940915742325152E-002
 zz xx     2.84745375326128     
 zz xy    7.295155536391821E-003
 zz xz    5.749328306364114E-004
 zz yy    -21.5543725260773     
 zz yz   -6.957457665725336E-002
 zz zz     18.7069187728156     



 =======================================================================
 Electrostatic potential at the Nuclei due to electrons and other nuclei
 =======================================================================
  
         Atom                  Potential
         ----                  ---------
     1)   C                  14.76889549
     2)   C                  14.76879455
     3)   C                  14.76875166
     4)   C                  14.76889641
     5)   C                  14.76879328
     6)   C                  14.76873927
     7)   H                   1.10109506
     8)   H                   1.10118386
     9)   H                   1.10157563
    10)   H                   1.10109498
    11)   H                   1.10117248
    12)   H                   1.10157590
 
 
 ========================
 No memory problems found
 ========================
 
 Maximum number of active allocate calls:        1279
 
 *******************************************************************************

                             A D F   E X I T
 NORMAL TERMINATION



 =================
 Timing Statistics
 =================
  
 Total Used :                     CPU=       46.13      System=        0.63     Elapsed=       47.43

 Calls  Section                     ( Mean, Percentage )
 ---------------------------------------------------------------------------------------------------
     3  ><      ................      0.00    0.01             0.00    0.01             0.00    0.01
     1  INIT    ................      0.53    1.15             0.01    1.80             0.56    1.18
     1  GEOMET  ................      0.04    0.09             0.00    0.63             0.05    0.10
     1  FRAGM   ................      0.03    0.06             0.00    0.69             0.04    0.07
     1  INPUTA  ................      0.00    0.01             0.00    0.00             0.00    0.01
     1  ATDEN   ................      0.00    0.01             0.00    0.00             0.00    0.01
     1  MAINSY  ................      0.03    0.07             0.00    0.63             0.04    0.07
     1  SYMFIT  ................      0.01    0.02             0.00    0.00             0.01    0.02
     1  CORORT  ................      0.00    0.00             0.00    0.00             0.00    0.00
     1  SYMORB  ................      0.00    0.01             0.00    0.00             0.00    0.01
     1  CLSMAT  ................      0.01    0.03             0.00    0.00             0.01    0.03
     1  ORTHON  ................      0.01    0.02             0.00    0.68             0.02    0.03
     1  GENPT   ................      0.12    0.26             0.00    0.64             0.13    0.27
     1  PTBAS   ................      0.08    0.18             0.01    1.27             0.09    0.19
    13  FOCKY   ................      0.34    9.49             0.00    9.91             0.36    9.77
    13  FOCKTR  ................      0.00    0.09             0.00    0.21             0.00    0.10
    13  SDIIS   ................      0.00    0.13             0.00    0.71             0.01    0.15
     1  COREPS  ................      0.28    0.61             0.00    0.00             0.28    0.59
     1  TOTEN   ................      1.15    2.50             0.02    3.23             1.19    2.51
     1  POPAN   ................      0.01    0.02             0.00    0.00             0.01    0.02
     1  DEBYE   ................      0.02    0.03             0.00    0.00             0.02    0.03
     1  INPUTE  ................      0.00    0.00             0.00    0.00             0.00    0.00
     1  SYMORE  ................      0.00    0.00             0.00    0.00             0.00    0.00
     1  METS    ................      0.00    0.00             0.00    0.07             0.00    0.00
     1  CETS    ................      0.01    0.02             0.00    0.56             0.01    0.02
     1  ELNRGY  ................      0.01    0.02             0.00    0.00             0.01    0.02
     1  POPUL   ................      0.01    0.03             0.00    0.00             0.01    0.03
     1  AORESPONSE .............     39.25   85.08             0.49   78.30            40.16   84.68
     1  EXIT PROCEDURE .........      0.03    0.06             0.00    0.63             0.03    0.06


 Currently Open Files (EXIT00)
 ====================

 Unit    Access Format  Status   Type       Ident (file)
 -------------------------------------------------------
   3      SEQ    FORM   TRANSP  NORMAL      LOGFILE
                                          ( logfile )

 ***************************************************************************************************
 (LOGFILE)
 <Sep29-2020> <15:34:29>  ADF 2019  RunTime: Sep29-2020 15:34:29  Nodes: 1  Procs: 1
 <Sep29-2020> <15:34:29>  Hydrogen (TZP)
 <Sep29-2020> <15:34:29>  RunType   : CREATE
 <Sep29-2020> <15:34:29>  Net Charge: 0 (Nuclei minus Electrons)
 <Sep29-2020> <15:34:29>  Symmetry  : ATOM
  Coordinates
    Atom         X           Y           Z   (Angstrom)
    1.H         0.000000    0.000000    0.000000
 <Sep29-2020> <15:34:29>  >>>> CORORT
 <Sep29-2020> <15:34:29>  >>>> CLSMAT
 <Sep29-2020> <15:34:29>  >>>> ORTHON
 <Sep29-2020> <15:34:29>  >>>> GENPT
 <Sep29-2020> <15:34:29>  Block Length=  64
 <Sep29-2020> <15:34:29>  >>>> PTBAS
 <Sep29-2020> <15:34:29>  >>>> CYCLE
 <Sep29-2020> <15:34:29>              |Error|         MaxErr       Wt(A-DIIS)
 <Sep29-2020> <15:34:29>      1      0.00000000      0.00000000
 <Sep29-2020> <15:34:29>      2      0.03052909      0.02968459
 <Sep29-2020> <15:34:30>      3      0.00718138      0.00670742    100.0
 <Sep29-2020> <15:34:30>      4      0.00117303      0.00114116      0.1
 <Sep29-2020> <15:34:30>      5      0.00002783      0.00002380      0.0
 <Sep29-2020> <15:34:30>      6      0.00000153      0.00000130      0.0
 <Sep29-2020> <15:34:30>      7      0.00000000      0.00000000      0.0
 <Sep29-2020> <15:34:30>  SCF converged
 <Sep29-2020> <15:34:30>      8      0.00000000      0.00000000      0.0
 <Sep29-2020> <15:34:30>  >>>> POPAN
 <Sep29-2020> <15:34:30>  >>>> DEBYE
 <Sep29-2020> <15:34:30>  NORMAL TERMINATION
 <Sep29-2020> <15:34:30>  END
 <Sep29-2020> <15:34:30>  ADF 2019  RunTime: Sep29-2020 15:34:30  Nodes: 1  Procs: 1
 <Sep29-2020> <15:34:30>  Carbon (TZP)
 <Sep29-2020> <15:34:30>  RunType   : CREATE
 <Sep29-2020> <15:34:30>  Net Charge: 0 (Nuclei minus Electrons)
 <Sep29-2020> <15:34:30>  Symmetry  : ATOM
  Coordinates
    Atom         X           Y           Z   (Angstrom)
    1.C         0.000000    0.000000    0.000000
 <Sep29-2020> <15:34:30>  >>>> CORORT
 <Sep29-2020> <15:34:30>  >>>> CLSMAT
 <Sep29-2020> <15:34:30>  >>>> ORTHON
 <Sep29-2020> <15:34:30>  >>>> GENPT
 <Sep29-2020> <15:34:30>  Block Length=  72
 <Sep29-2020> <15:34:30>  >>>> PTBAS
 <Sep29-2020> <15:34:30>  >>>> CYCLE
 <Sep29-2020> <15:34:30>              |Error|         MaxErr       Wt(A-DIIS)
 <Sep29-2020> <15:34:30>      1      0.00000000      0.00000000
 <Sep29-2020> <15:34:30>      2      4.48324754      3.31969244    100.0
 <Sep29-2020> <15:34:30>      3      1.61537707      1.30410194    100.0
 <Sep29-2020> <15:34:30>      4      0.72706284      0.59053131    100.0
 <Sep29-2020> <15:34:30>      5      0.40898688      0.33263800    100.0
 <Sep29-2020> <15:34:30>      6      0.13548919      0.10594416    100.0
 <Sep29-2020> <15:34:30>      7      0.11406432      0.09088019     90.8
 <Sep29-2020> <15:34:30>      8      0.01170325      0.00926551      8.3
 <Sep29-2020> <15:34:30>      9      0.00078015      0.00061791      0.0
 <Sep29-2020> <15:34:30>     10      0.00000178      0.00000107      0.0
 <Sep29-2020> <15:34:31>     11      0.00000024      0.00000019      0.0
 <Sep29-2020> <15:34:31>     12      0.00000000      0.00000000      0.0
 <Sep29-2020> <15:34:31>  SCF converged
 <Sep29-2020> <15:34:31>     13      0.00000000      0.00000000      0.0
 <Sep29-2020> <15:34:31>  >>>> POPAN
 <Sep29-2020> <15:34:31>  >>>> DEBYE
 <Sep29-2020> <15:34:31>  NORMAL TERMINATION
 <Sep29-2020> <15:34:31>  END
 <Sep29-2020> <15:34:31>  ADF 2019  RunTime: Sep29-2020 15:34:31  Nodes: 1  Procs: 6
 <Sep29-2020> <15:34:32>  None
 <Sep29-2020> <15:34:32>  RunType   : SINGLE POINT
 <Sep29-2020> <15:34:32>  Net Charge: 0 (Nuclei minus Electrons)
 <Sep29-2020> <15:34:32>  Symmetry  : NOSYM
 <Sep29-2020> <15:34:32>  >>>> FRAGM
  Coordinates
    Atom         X           Y           Z   (Angstrom)
    1.C         0.029700    3.999550   -1.398600
    2.C        -1.197000    3.999799   -0.725300
    3.C        -1.226700    4.000254    0.673700
    4.C        -0.029700    4.000450    1.398600
    5.C         1.197000    4.000201    0.725300
    6.C         1.226700    3.999746   -0.673700
    7.H        -2.130100    4.001339   -1.291500
    8.H        -2.183100    3.998307    1.199800
    9.H        -0.053000    3.996995    2.490100
   10.H         2.130100    3.998667    1.291500
   11.H         2.183200    4.001699   -1.199800
   12.H         0.052900    4.003005   -2.490100
 <Sep29-2020> <15:34:32>  >>>> CORORT
 <Sep29-2020> <15:34:32>  >>>> CLSMAT
 <Sep29-2020> <15:34:32>  >>>> ORTHON
 <Sep29-2020> <15:34:32>  >>>> GENPT
 <Sep29-2020> <15:34:32>  Block Length= 128
 <Sep29-2020> <15:34:32>  >>>> PTBAS
 <Sep29-2020> <15:34:32>  >>>> CYCLE
 <Sep29-2020> <15:34:32>              |Error|         MaxErr       Wt(A-DIIS)
 <Sep29-2020> <15:34:32>      1      5.99092356      0.98027571
 <Sep29-2020> <15:34:33>      2      0.89232264      0.18709924    100.0
 <Sep29-2020> <15:34:33>      3      0.52145157      0.10260504    100.0
 <Sep29-2020> <15:34:34>      4      0.74325001      0.17265030    100.0
 <Sep29-2020> <15:34:34>      5      0.07622393      0.01072990      9.8
 <Sep29-2020> <15:34:34>      6      0.01070933      0.00169567      0.7
 <Sep29-2020> <15:34:35>      7      0.00113644      0.00027166      0.0
 <Sep29-2020> <15:34:35>      8      0.00033138      0.00008109      0.0
 <Sep29-2020> <15:34:35>      9      0.00015818      0.00003997      0.0
 <Sep29-2020> <15:34:36>     10      0.00000772      0.00000190      0.0
 <Sep29-2020> <15:34:36>     11      0.00000802      0.00000208      0.0
 <Sep29-2020> <15:34:36>     12      0.00000011      0.00000002      0.0
 <Sep29-2020> <15:34:36>  SCF converged
 <Sep29-2020> <15:34:37>     13      0.00000007      0.00000001      0.0
 <Sep29-2020> <15:34:37>  >>>> TOTEN
 <Sep29-2020> <15:34:38>  >>>> POPAN
 <Sep29-2020> <15:34:38>  >>>> DEBYE
 <Sep29-2020> <15:34:38>  >>>> AMETS
 <Sep29-2020> <15:34:38>  >>>> POPUL
 <Sep29-2020> <15:34:39>     1 V(1)  0.1844067E+04
 <Sep29-2020> <15:34:39>     2 V(1)  0.1574287E+04
 <Sep29-2020> <15:34:40>     3 V(1)  0.1556984E+04
 <Sep29-2020> <15:34:40>     4 V(1)  0.1563538E+04
 <Sep29-2020> <15:34:40>     5 V(1)  0.1565494E+04
 <Sep29-2020> <15:34:41>     6 V(1)  0.1565370E+04
 <Sep29-2020> <15:34:41>     7 V(1)  0.1565319E+04
 <Sep29-2020> <15:34:42>     8 V(1)  0.1565314E+04
 <Sep29-2020> <15:34:42>     9 V(1)  0.1565309E+04
 <Sep29-2020> <15:34:43>    10 V(1)  0.1565308E+04
 <Sep29-2020> <15:34:43>   convergence reached
 <Sep29-2020> <15:34:43>     1 V(1)  0.2536703E+02
 <Sep29-2020> <15:34:44>     2 V(1)  0.2327286E+02
 <Sep29-2020> <15:34:44>     3 V(1)  0.2328853E+02
 <Sep29-2020> <15:34:45>     4 V(1)  0.2328542E+02
 <Sep29-2020> <15:34:45>     5 V(1)  0.2328555E+02
 <Sep29-2020> <15:34:45>     6 V(1)  0.2328510E+02
 <Sep29-2020> <15:34:46>     7 V(1)  0.2328508E+02
 <Sep29-2020> <15:34:46>   convergence reached
 <Sep29-2020> <15:34:46>     1 V(1)  0.1841868E+04
 <Sep29-2020> <15:34:47>     2 V(1)  0.1572301E+04
 <Sep29-2020> <15:34:47>     3 V(1)  0.1555046E+04
 <Sep29-2020> <15:34:48>     4 V(1)  0.1561588E+04
 <Sep29-2020> <15:34:48>     5 V(1)  0.1563544E+04
 <Sep29-2020> <15:34:49>     6 V(1)  0.1563430E+04
 <Sep29-2020> <15:34:49>     7 V(1)  0.1563371E+04
 <Sep29-2020> <15:34:50>     8 V(1)  0.1563365E+04
 <Sep29-2020> <15:34:50>     9 V(1)  0.1563360E+04
 <Sep29-2020> <15:34:50>    10 V(1)  0.1563359E+04
 <Sep29-2020> <15:34:50>   convergence reached
 <Sep29-2020> <15:34:51>     1 V(1)  0.1302872E+04
 <Sep29-2020> <15:34:51>     2 V(1)  0.1073717E+04
 <Sep29-2020> <15:34:52>     3 V(1)  0.1108779E+04
 <Sep29-2020> <15:34:52>     4 V(1)  0.1112843E+04
 <Sep29-2020> <15:34:53>     5 V(1)  0.1115387E+04
 <Sep29-2020> <15:34:53>     6 V(1)  0.1115826E+04
 <Sep29-2020> <15:34:54>     7 V(1)  0.1115938E+04
 <Sep29-2020> <15:34:54>     8 V(1)  0.1115941E+04
 <Sep29-2020> <15:34:55>     9 V(1)  0.1115938E+04
 <Sep29-2020> <15:34:55>    10 V(1)  0.1115937E+04
 <Sep29-2020> <15:34:56>    11 V(1)  0.1115937E+04
 <Sep29-2020> <15:34:56>   convergence reached
 <Sep29-2020> <15:34:56>     1 V(1)  0.1057888E+06
 <Sep29-2020> <15:34:57>     2 V(1)  0.8966297E+05
 <Sep29-2020> <15:34:57>     3 V(1)  0.8876745E+05
 <Sep29-2020> <15:34:58>     4 V(1)  0.8939370E+05
 <Sep29-2020> <15:34:58>     5 V(1)  0.8951260E+05
 <Sep29-2020> <15:34:58>     6 V(1)  0.8950440E+05
 <Sep29-2020> <15:34:59>     7 V(1)  0.8950143E+05
 <Sep29-2020> <15:34:59>     8 V(1)  0.8950101E+05
 <Sep29-2020> <15:35:00>     9 V(1)  0.8950067E+05
 <Sep29-2020> <15:35:00>    10 V(1)  0.8950062E+05
 <Sep29-2020> <15:35:00>   convergence reached
 <Sep29-2020> <15:35:01>     1 V(1)  0.6150815E+03
 <Sep29-2020> <15:35:01>     2 V(1)  0.4702669E+03
 <Sep29-2020> <15:35:02>     3 V(1)  0.4843099E+03
 <Sep29-2020> <15:35:02>     4 V(1)  0.4854883E+03
 <Sep29-2020> <15:35:03>     5 V(1)  0.4860122E+03
 <Sep29-2020> <15:35:03>     6 V(1)  0.4860198E+03
 <Sep29-2020> <15:35:03>     7 V(1)  0.4860217E+03
 <Sep29-2020> <15:35:04>     8 V(1)  0.4860205E+03
 <Sep29-2020> <15:35:04>     9 V(1)  0.4860195E+03
 <Sep29-2020> <15:35:05>    10 V(1)  0.4860193E+03
 <Sep29-2020> <15:35:05>   convergence reached
 <Sep29-2020> <15:35:05>     1 V(1)  0.2749210E+04
 <Sep29-2020> <15:35:06>     2 V(1)  0.2506091E+04
 <Sep29-2020> <15:35:06>     3 V(1)  0.2518041E+04
 <Sep29-2020> <15:35:07>     4 V(1)  0.2520533E+04
 <Sep29-2020> <15:35:07>     5 V(1)  0.2520740E+04
 <Sep29-2020> <15:35:08>     6 V(1)  0.2520785E+04
 <Sep29-2020> <15:35:08>     7 V(1)  0.2520781E+04
 <Sep29-2020> <15:35:09>     8 V(1)  0.2520779E+04
 <Sep29-2020> <15:35:09>   convergence reached
 <Sep29-2020> <15:35:09>     1 V(1)  0.1056631E+06
 <Sep29-2020> <15:35:10>     2 V(1)  0.8954992E+05
 <Sep29-2020> <15:35:10>     3 V(1)  0.8865709E+05
 <Sep29-2020> <15:35:11>     4 V(1)  0.8928244E+05
 <Sep29-2020> <15:35:11>     5 V(1)  0.8940123E+05
 <Sep29-2020> <15:35:11>     6 V(1)  0.8939363E+05
 <Sep29-2020> <15:35:12>     7 V(1)  0.8939018E+05
 <Sep29-2020> <15:35:12>     8 V(1)  0.8938972E+05
 <Sep29-2020> <15:35:13>     9 V(1)  0.8938937E+05
 <Sep29-2020> <15:35:13>    10 V(1)  0.8938932E+05
 <Sep29-2020> <15:35:13>   convergence reached
 <Sep29-2020> <15:35:14>     1 V(1)  0.1302536E+04
 <Sep29-2020> <15:35:14>     2 V(1)  0.1073543E+04
 <Sep29-2020> <15:35:15>     3 V(1)  0.1108588E+04
 <Sep29-2020> <15:35:15>     4 V(1)  0.1112656E+04
 <Sep29-2020> <15:35:16>     5 V(1)  0.1115200E+04
 <Sep29-2020> <15:35:16>     6 V(1)  0.1115640E+04
 <Sep29-2020> <15:35:17>     7 V(1)  0.1115752E+04
 <Sep29-2020> <15:35:17>     8 V(1)  0.1115756E+04
 <Sep29-2020> <15:35:18>     9 V(1)  0.1115753E+04
 <Sep29-2020> <15:35:18>    10 V(1)  0.1115752E+04
 <Sep29-2020> <15:35:18>    11 V(1)  0.1115752E+04
 <Sep29-2020> <15:35:18>   convergence reached
 <Sep29-2020> <15:35:18>  NORMAL TERMINATION
 <Sep29-2020> <15:35:18>  END
