

 Parallel Execution: Process Information
 ==============================================================================
 Rank   Node Name                              NodeID   MyNodeRank  NodeMaster
    0   magnesium.science.psu.edu                 0          0          0
    1   magnesium.science.psu.edu                 0          1         -1
    2   magnesium.science.psu.edu                 0          2         -1
    3   magnesium.science.psu.edu                 0          3         -1
    4   magnesium.science.psu.edu                 0          4         -1
    5   magnesium.science.psu.edu                 0          5         -1
 ==============================================================================


May use up to 7495MB of RAM as shared memory on node 0
 
TITLE None

ATOMS
1  C     0.02999608    4.00000000   -1.39780693
2  C    -1.19674622    4.00000000   -0.72671695
3  C    -1.22613957    4.00000000    0.67528085
4  C    -0.02999608    4.00000000    1.39780693
5  C     1.19674622    4.00000000    0.72671695
6  C     1.22613957    4.00000000   -0.67528085
7  H    -2.13145350    4.00000000   -1.29035798
8  H    -2.18435833    4.00000000    1.19812927
9  H    -0.05258761    4.00000000    2.48924878
10 H     2.13145350    4.00000000    1.29036327
11 H     2.18445833    4.00000000   -1.19812927
12 H     0.05248761    4.00000000   -2.48924878
END

XC
 gga BP86
end

symmetry nosym

aoresponse
 alda
 frequency 1 3.6 eV
 lifetime 0.0037
 El_Dipole_El_Dipole
 El_Dipole_El_Quadrupole
 El_Quadrupole_El_Quadrupole
 Traceless
end

Fragments
H t21.H
C t21.C
End

 *******************************************************************************
 *                                                                             *
 *  -------------------------------------                                      *
 *   Amsterdam Density Functional  (ADF)         2019                          *
 *  -------------------------------------                                      *
 *                                               r75281 2019-06-03             *
 *                                                                             *
 *                                                                             *
 *                              =================                              *
 *                              |               |                              *
 *                              |     A D F     |                              *
 *                              |               |                              *
 *                              =================                              *
 *                                                                             *
 *                                                                             *
 *   Online information and documentation:  https://www.scm.com/support/       *
 *   E-mail:  support@scm.com   info@scm.com                                   *
 *                                                                             *
 *   Scientific publications using ADF results must be properly referenced     *
 *   See the User Manuals (or the web site) for recommended citations          *
 *   The terms and conditions of the End User License Agreement apply to       *
 *   the use of ADF, https://www.scm.com/license-terms/                        *
 *                                                                             *
 **********************  x86_64_linux_intel / intelmpi  ************************
 
 Licensed to: Prof. Lasse Jensen / Penn State University / University Park / PA  / USA
 SCM User ID: u8493
  
 ADF 2019  RunTime: Sep29-2020 15:24:29  Nodes: 1  Procs: 6

 Temporary files are created in /scratch/kid_0.302376643


Communication costs MPI_COMM_WORLD:      0.630 usec per message,   0.0075 usec per 8-byte item
Communication costs for intra-node:      0.609 usec per message,   0.0077 usec per 8-byte item

 None



 ===========================
 A T T A C H E D   F I L E S
 ===========================
  



 ===============================
 M O D E L   P A R A M E T E R S
 ===============================
  
 DENSITY FUNCTIONAL POTENTIAL (scf)
    LDA:                               VWN                                      
    Gradient Corrections:              Becke88 Perdew86                        == Not Default ==

 SPIN  (restricted / unrestr.)
    Molecule:                          Restricted                               
    Fragments:                         Restricted                               

 OTHER ASPECTS
    Relativistic Corrections:          ---                                      

    Nuclear Charge Density Model:      Point Charge Nuclei                      
    Core Treatment:                    Frozen Orbital(s)                        

    Hyperfine or Zeeman Interaction:   ---                                      


 Fragment File(s)
 ----------------
 C:
         file : t21.C
         jobid: ADF 2019  RunTime: Sep29-2020 15:24:28  Nodes: 1  Procs: 1
         title: Carbon (TZP)
 H:
         file : t21.H
         jobid: ADF 2019  RunTime: Sep29-2020 15:24:27  Nodes: 1  Procs: 1
         title: Hydrogen (TZP)



                                        ************************************
                                        *  R U N   T Y P E : SINGLE POINT  *
                                        ************************************
  



 ===============
 G E O M E T R Y  ***  Planar Molecule  ***
 ===============
  

 ATOMS
 =====                            X Y Z                    CHARGE
                                (Angstrom)             Nucl     +Core       At.Mass
                       --------------------------    ----------------       -------
    1  C               0.0300    4.0000   -1.3978      6.00      6.00       12.0000
    2  C              -1.1967    4.0000   -0.7267      6.00      6.00       12.0000
    3  C              -1.2261    4.0000    0.6753      6.00      6.00       12.0000
    4  C              -0.0300    4.0000    1.3978      6.00      6.00       12.0000
    5  C               1.1967    4.0000    0.7267      6.00      6.00       12.0000
    6  C               1.2261    4.0000   -0.6753      6.00      6.00       12.0000
    7  H              -2.1315    4.0000   -1.2904      1.00      1.00        1.0078
    8  H              -2.1844    4.0000    1.1981      1.00      1.00        1.0078
    9  H              -0.0526    4.0000    2.4892      1.00      1.00        1.0078
   10  H               2.1315    4.0000    1.2904      1.00      1.00        1.0078
   11  H               2.1845    4.0000   -1.1981      1.00      1.00        1.0078
   12  H               0.0525    4.0000   -2.4892      1.00      1.00        1.0078


 FRAGMENTS
 =========                                     Atoms in this Fragment     Cart. coord.s (Angstrom)
                                               -------------------------------------------------------
    1  C                                                 1  C            0.0300    4.0000   -1.3978
    2  C                                                 2  C           -1.1967    4.0000   -0.7267
    3  C                                                 3  C           -1.2261    4.0000    0.6753
    4  C                                                 4  C           -0.0300    4.0000    1.3978
    5  C                                                 5  C            1.1967    4.0000    0.7267
    6  C                                                 6  C            1.2261    4.0000   -0.6753
    7  H                                                 7  H           -2.1315    4.0000   -1.2904
    8  H                                                 8  H           -2.1844    4.0000    1.1981
    9  H                                                 9  H           -0.0526    4.0000    2.4892
   10  H                                                10  H            2.1315    4.0000    1.2904
   11  H                                                11  H            2.1845    4.0000   -1.1981
   12  H                                                12  H            0.0525    4.0000   -2.4892


 Interatomic Distance Matrix (Angstrom)
 --------------------------------------

   1)     0.000
   2)     1.398   0.000
   3)     2.424   1.402   0.000
   4)     2.796   2.424   1.397   0.000
   5)     2.424   2.800   2.423   1.398   0.000
   6)     1.397   2.423   2.800   2.424   1.402   0.000
   7)     2.164   1.091   2.164   3.412   3.892   3.413   0.000
   8)     3.412   2.163   1.092   2.164   3.414   3.891   2.489   0.000
   9)     3.888   3.413   2.160   1.092   2.160   3.413   4.314   2.492   0.000
  10)     3.412   3.892   3.413   2.164   1.092   2.164   4.983   4.317   2.491   0.000
  11)     2.164   3.414   3.891   3.412   2.163   1.092   4.317   4.983   4.313   2.489
          0.000
  12)     1.092   2.160   3.413   3.888   3.413   2.161   2.491   4.313   4.980   4.314
          2.492   0.000

 Min. Distance =    1.0915
 Max. Distance =    4.9832



 =====================================
 S Y M M E T R Y ,   E L E C T R O N S
 =====================================
  
 Symmetry: NOSYM

 Irreducible Representations, including subspecies
 -------------------------------------------------
 A


 Configuration of Valence Electrons
 ==================================
 ( determined in the SCF procedure )

 Total:   42

 Net Charge: 0 (Nuclei minus Electrons)

 Aufbau principle for MO occupations will be applied through SCF cycle no.     150
 Thereafter, the program will assign electrons to MOs that are spatially
 similar to the occupied MOs in a "reference" cycle ("KeepOrbitals").
 The reference cycle is always the PREVIOUS cycle: it will evolve with
 the SCF procedure.
1
 ***************************************************************************************************



                                      ****************************************
                                      *  B U I L D : (Fragments, Functions)  *
                                      ****************************************
  



 =======
 S F O s  ***  (Symmetrized Fragment Orbitals)  ***
 =======
  
 SFOs are linear combinations of (valence) Fragment Orbitals (FOs), such that the SFOs transform as the
 irreducible representations of the (molecular) symmetry group. Each SFO is therefore characterized by
 an irrep of the molecule and by a few (or only one) generating FOs.
 The SFOs constitute a symmetry-adapted basis for the Fock matrix. The MO eigenvector coefficients in
 this basis provide a direct interpretation of the MOs in terms of Frontier Orbital Theory.

 The SFOs are combined with auxiliary Core Functions (CFs) to ensure orthogonalization on the (frozen)
 Core Orbitals (COs). The Core-orthogonalized SFOs (CSFOs) constitute the true Fock basis.

 The FOs, and hence also the (C)SFOs are combinations of the elementary basis functions (BAS). The basis
 functions that participate in the description of the SFOs depend on the irrep. The indices of the
 involved functions are printed below for each irrep.
 (The complete list of primitive basis functions is printed in another section)

 Total nr. of (C)SFOs (summation over all irreps) :   150

 NOTE: a (C)SFO that is defined as a combination of more than one FO is usually NOT normalized.



                                       === A ===
 Nr. of SFOs :  150
 Cartesian basis functions that participate in this irrep (total number =   156) :
      1     2     3     4     5     6     9    12     7    10
     13     8    11    14    15    16    17    18    19    20
     21    22    23    24    25    26    29    32    27    30
     33    28    31    34    35    36    37    38    39    40
     41    42    43    44    45    46    49    52    47    50
     53    48    51    54    55    56    57    58    59    60
     61    62    63    64    65    66    69    72    67    70
     73    68    71    74    75    76    77    78    79    80
     81    82    83    84    85    86    89    92    87    90
     93    88    91    94    95    96    97    98    99   100
    101   102   103   104   105   106   109   112   107   110
    113   108   111   114   115   116   117   118   119   120
    121   122   123   124   125   126   127   128   129   130
    131   132   133   134   135   136   137   138   139   140
    141   142   143   144   145   146   147   148   149   150
    151   152   153   154   155   156

    SFO  (index         Fragment          Generating    Expansion in Fragment Orbitals
  indx  incl.CFs)   Occup   Orb.Energy   FragmentType  Coeff.   Orbital     on Fragment
 --------------------------------------------------------------------------------------
     1       1      2.000     -10.058 au  C             1.00      1 S               1
                        (    -273.681 eV)
     2       2      2.000      -0.510 au  C             1.00      2 S               1
                        (     -13.876 eV)
     3       3       --         0.371 au  C             1.00      3 S               1
                        (      10.091 eV)
     4       4       --         5.428 au  C             1.00      4 S               1
                        (     147.707 eV)
     5       5       --        50.181 au  C             1.00      5 S               1
                        (    1365.486 eV)
     6       6      0.667      -0.199 au  C             1.00      1 P:x             1
                        (      -5.403 eV)
     7       7       --         0.173 au  C             1.00      2 P:x             1
                        (       4.709 eV)
     8       8       --         2.026 au  C             1.00      3 P:x             1
                        (      55.143 eV)
     9       9      0.667      -0.199 au  C             1.00      1 P:y             1
                        (      -5.403 eV)
    10      10       --         0.173 au  C             1.00      2 P:y             1
                        (       4.709 eV)
    11      11       --         2.026 au  C             1.00      3 P:y             1
                        (      55.143 eV)
    12      12      0.667      -0.199 au  C             1.00      1 P:z             1
                        (      -5.403 eV)
    13      13       --         0.173 au  C             1.00      2 P:z             1
                        (       4.709 eV)
    14      14       --         2.026 au  C             1.00      3 P:z             1
                        (      55.143 eV)
    15      15       --         1.232 au  C             1.00      1 D:z2            1
                        (      33.528 eV)
    16      16       --         1.232 au  C             1.00      1 D:x2-y2         1
                        (      33.528 eV)
    17      17       --         1.232 au  C             1.00      1 D:xy            1
                        (      33.528 eV)
    18      18       --         1.232 au  C             1.00      1 D:xz            1
                        (      33.528 eV)
    19      19       --         1.232 au  C             1.00      1 D:yz            1
                        (      33.528 eV)
    20      20      2.000     -10.058 au  C             1.00      1 S               2
                        (    -273.681 eV)
    21      21      2.000      -0.510 au  C             1.00      2 S               2
                        (     -13.876 eV)
    22      22       --         0.371 au  C             1.00      3 S               2
                        (      10.091 eV)
    23      23       --         5.428 au  C             1.00      4 S               2
                        (     147.707 eV)
    24      24       --        50.181 au  C             1.00      5 S               2
                        (    1365.486 eV)
    25      25      0.667      -0.199 au  C             1.00      1 P:x             2
                        (      -5.403 eV)
    26      26       --         0.173 au  C             1.00      2 P:x             2
                        (       4.709 eV)
    27      27       --         2.026 au  C             1.00      3 P:x             2
                        (      55.143 eV)
    28      28      0.667      -0.199 au  C             1.00      1 P:y             2
                        (      -5.403 eV)
    29      29       --         0.173 au  C             1.00      2 P:y             2
                        (       4.709 eV)
    30      30       --         2.026 au  C             1.00      3 P:y             2
                        (      55.143 eV)
    31      31      0.667      -0.199 au  C             1.00      1 P:z             2
                        (      -5.403 eV)
    32      32       --         0.173 au  C             1.00      2 P:z             2
                        (       4.709 eV)
    33      33       --         2.026 au  C             1.00      3 P:z             2
                        (      55.143 eV)
    34      34       --         1.232 au  C             1.00      1 D:z2            2
                        (      33.528 eV)
    35      35       --         1.232 au  C             1.00      1 D:x2-y2         2
                        (      33.528 eV)
    36      36       --         1.232 au  C             1.00      1 D:xy            2
                        (      33.528 eV)
    37      37       --         1.232 au  C             1.00      1 D:xz            2
                        (      33.528 eV)
    38      38       --         1.232 au  C             1.00      1 D:yz            2
                        (      33.528 eV)
    39      39      2.000     -10.058 au  C             1.00      1 S               3
                        (    -273.681 eV)
    40      40      2.000      -0.510 au  C             1.00      2 S               3
                        (     -13.876 eV)
    41      41       --         0.371 au  C             1.00      3 S               3
                        (      10.091 eV)
    42      42       --         5.428 au  C             1.00      4 S               3
                        (     147.707 eV)
    43      43       --        50.181 au  C             1.00      5 S               3
                        (    1365.486 eV)
    44      44      0.667      -0.199 au  C             1.00      1 P:x             3
                        (      -5.403 eV)
    45      45       --         0.173 au  C             1.00      2 P:x             3
                        (       4.709 eV)
    46      46       --         2.026 au  C             1.00      3 P:x             3
                        (      55.143 eV)
    47      47      0.667      -0.199 au  C             1.00      1 P:y             3
                        (      -5.403 eV)
    48      48       --         0.173 au  C             1.00      2 P:y             3
                        (       4.709 eV)
    49      49       --         2.026 au  C             1.00      3 P:y             3
                        (      55.143 eV)
    50      50      0.667      -0.199 au  C             1.00      1 P:z             3
                        (      -5.403 eV)
    51      51       --         0.173 au  C             1.00      2 P:z             3
                        (       4.709 eV)
    52      52       --         2.026 au  C             1.00      3 P:z             3
                        (      55.143 eV)
    53      53       --         1.232 au  C             1.00      1 D:z2            3
                        (      33.528 eV)
    54      54       --         1.232 au  C             1.00      1 D:x2-y2         3
                        (      33.528 eV)
    55      55       --         1.232 au  C             1.00      1 D:xy            3
                        (      33.528 eV)
    56      56       --         1.232 au  C             1.00      1 D:xz            3
                        (      33.528 eV)
    57      57       --         1.232 au  C             1.00      1 D:yz            3
                        (      33.528 eV)
    58      58      2.000     -10.058 au  C             1.00      1 S               4
                        (    -273.681 eV)
    59      59      2.000      -0.510 au  C             1.00      2 S               4
                        (     -13.876 eV)
    60      60       --         0.371 au  C             1.00      3 S               4
                        (      10.091 eV)
    61      61       --         5.428 au  C             1.00      4 S               4
                        (     147.707 eV)
    62      62       --        50.181 au  C             1.00      5 S               4
                        (    1365.486 eV)
    63      63      0.667      -0.199 au  C             1.00      1 P:x             4
                        (      -5.403 eV)
    64      64       --         0.173 au  C             1.00      2 P:x             4
                        (       4.709 eV)
    65      65       --         2.026 au  C             1.00      3 P:x             4
                        (      55.143 eV)
    66      66      0.667      -0.199 au  C             1.00      1 P:y             4
                        (      -5.403 eV)
    67      67       --         0.173 au  C             1.00      2 P:y             4
                        (       4.709 eV)
    68      68       --         2.026 au  C             1.00      3 P:y             4
                        (      55.143 eV)
    69      69      0.667      -0.199 au  C             1.00      1 P:z             4
                        (      -5.403 eV)
    70      70       --         0.173 au  C             1.00      2 P:z             4
                        (       4.709 eV)
    71      71       --         2.026 au  C             1.00      3 P:z             4
                        (      55.143 eV)
    72      72       --         1.232 au  C             1.00      1 D:z2            4
                        (      33.528 eV)
    73      73       --         1.232 au  C             1.00      1 D:x2-y2         4
                        (      33.528 eV)
    74      74       --         1.232 au  C             1.00      1 D:xy            4
                        (      33.528 eV)
    75      75       --         1.232 au  C             1.00      1 D:xz            4
                        (      33.528 eV)
    76      76       --         1.232 au  C             1.00      1 D:yz            4
                        (      33.528 eV)
    77      77      2.000     -10.058 au  C             1.00      1 S               5
                        (    -273.681 eV)
    78      78      2.000      -0.510 au  C             1.00      2 S               5
                        (     -13.876 eV)
    79      79       --         0.371 au  C             1.00      3 S               5
                        (      10.091 eV)
    80      80       --         5.428 au  C             1.00      4 S               5
                        (     147.707 eV)
    81      81       --        50.181 au  C             1.00      5 S               5
                        (    1365.486 eV)
    82      82      0.667      -0.199 au  C             1.00      1 P:x             5
                        (      -5.403 eV)
    83      83       --         0.173 au  C             1.00      2 P:x             5
                        (       4.709 eV)
    84      84       --         2.026 au  C             1.00      3 P:x             5
                        (      55.143 eV)
    85      85      0.667      -0.199 au  C             1.00      1 P:y             5
                        (      -5.403 eV)
    86      86       --         0.173 au  C             1.00      2 P:y             5
                        (       4.709 eV)
    87      87       --         2.026 au  C             1.00      3 P:y             5
                        (      55.143 eV)
    88      88      0.667      -0.199 au  C             1.00      1 P:z             5
                        (      -5.403 eV)
    89      89       --         0.173 au  C             1.00      2 P:z             5
                        (       4.709 eV)
    90      90       --         2.026 au  C             1.00      3 P:z             5
                        (      55.143 eV)
    91      91       --         1.232 au  C             1.00      1 D:z2            5
                        (      33.528 eV)
    92      92       --         1.232 au  C             1.00      1 D:x2-y2         5
                        (      33.528 eV)
    93      93       --         1.232 au  C             1.00      1 D:xy            5
                        (      33.528 eV)
    94      94       --         1.232 au  C             1.00      1 D:xz            5
                        (      33.528 eV)
    95      95       --         1.232 au  C             1.00      1 D:yz            5
                        (      33.528 eV)
    96      96      2.000     -10.058 au  C             1.00      1 S               6
                        (    -273.681 eV)
    97      97      2.000      -0.510 au  C             1.00      2 S               6
                        (     -13.876 eV)
    98      98       --         0.371 au  C             1.00      3 S               6
                        (      10.091 eV)
    99      99       --         5.428 au  C             1.00      4 S               6
                        (     147.707 eV)
   100     100       --        50.181 au  C             1.00      5 S               6
                        (    1365.486 eV)
   101     101      0.667      -0.199 au  C             1.00      1 P:x             6
                        (      -5.403 eV)
   102     102       --         0.173 au  C             1.00      2 P:x             6
                        (       4.709 eV)
   103     103       --         2.026 au  C             1.00      3 P:x             6
                        (      55.143 eV)
   104     104      0.667      -0.199 au  C             1.00      1 P:y             6
                        (      -5.403 eV)
   105     105       --         0.173 au  C             1.00      2 P:y             6
                        (       4.709 eV)
   106     106       --         2.026 au  C             1.00      3 P:y             6
                        (      55.143 eV)
   107     107      0.667      -0.199 au  C             1.00      1 P:z             6
                        (      -5.403 eV)
   108     108       --         0.173 au  C             1.00      2 P:z             6
                        (       4.709 eV)
   109     109       --         2.026 au  C             1.00      3 P:z             6
                        (      55.143 eV)
   110     110       --         1.232 au  C             1.00      1 D:z2            6
                        (      33.528 eV)
   111     111       --         1.232 au  C             1.00      1 D:x2-y2         6
                        (      33.528 eV)
   112     112       --         1.232 au  C             1.00      1 D:xy            6
                        (      33.528 eV)
   113     113       --         1.232 au  C             1.00      1 D:xz            6
                        (      33.528 eV)
   114     114       --         1.232 au  C             1.00      1 D:yz            6
                        (      33.528 eV)
   115     115      1.000      -0.244 au  H             1.00      1 S               7
                        (      -6.626 eV)
   116     116       --         0.093 au  H             1.00      2 S               7
                        (       2.536 eV)
   117     117       --         1.515 au  H             1.00      3 S               7
                        (      41.236 eV)
   118     118       --         0.400 au  H             1.00      1 P:x             7
                        (      10.872 eV)
   119     119       --         0.400 au  H             1.00      1 P:y             7
                        (      10.872 eV)
   120     120       --         0.400 au  H             1.00      1 P:z             7
                        (      10.872 eV)
   121     121      1.000      -0.244 au  H             1.00      1 S               8
                        (      -6.626 eV)
   122     122       --         0.093 au  H             1.00      2 S               8
                        (       2.536 eV)
   123     123       --         1.515 au  H             1.00      3 S               8
                        (      41.236 eV)
   124     124       --         0.400 au  H             1.00      1 P:x             8
                        (      10.872 eV)
   125     125       --         0.400 au  H             1.00      1 P:y             8
                        (      10.872 eV)
   126     126       --         0.400 au  H             1.00      1 P:z             8
                        (      10.872 eV)
   127     127      1.000      -0.244 au  H             1.00      1 S               9
                        (      -6.626 eV)
   128     128       --         0.093 au  H             1.00      2 S               9
                        (       2.536 eV)
   129     129       --         1.515 au  H             1.00      3 S               9
                        (      41.236 eV)
   130     130       --         0.400 au  H             1.00      1 P:x             9
                        (      10.872 eV)
   131     131       --         0.400 au  H             1.00      1 P:y             9
                        (      10.872 eV)
   132     132       --         0.400 au  H             1.00      1 P:z             9
                        (      10.872 eV)
   133     133      1.000      -0.244 au  H             1.00      1 S              10
                        (      -6.626 eV)
   134     134       --         0.093 au  H             1.00      2 S              10
                        (       2.536 eV)
   135     135       --         1.515 au  H             1.00      3 S              10
                        (      41.236 eV)
   136     136       --         0.400 au  H             1.00      1 P:x            10
                        (      10.872 eV)
   137     137       --         0.400 au  H             1.00      1 P:y            10
                        (      10.872 eV)
   138     138       --         0.400 au  H             1.00      1 P:z            10
                        (      10.872 eV)
   139     139      1.000      -0.244 au  H             1.00      1 S              11
                        (      -6.626 eV)
   140     140       --         0.093 au  H             1.00      2 S              11
                        (       2.536 eV)
   141     141       --         1.515 au  H             1.00      3 S              11
                        (      41.236 eV)
   142     142       --         0.400 au  H             1.00      1 P:x            11
                        (      10.872 eV)
   143     143       --         0.400 au  H             1.00      1 P:y            11
                        (      10.872 eV)
   144     144       --         0.400 au  H             1.00      1 P:z            11
                        (      10.872 eV)
   145     145      1.000      -0.244 au  H             1.00      1 S              12
                        (      -6.626 eV)
   146     146       --         0.093 au  H             1.00      2 S              12
                        (       2.536 eV)
   147     147       --         1.515 au  H             1.00      3 S              12
                        (      41.236 eV)
   148     148       --         0.400 au  H             1.00      1 P:x            12
                        (      10.872 eV)
   149     149       --         0.400 au  H             1.00      1 P:y            12
                        (      10.872 eV)
   150     150       --         0.400 au  H             1.00      1 P:z            12
                        (      10.872 eV)



 ================================
 (Slater-type)  F U N C T I O N S  ***  (Basis and Fit)  ***
 ================================
  

 Atom Type    1  (C)
 ==============

 Valence Basis Sets:   9
 -----------------------
   1 S    7.680000
   1 S    5.000000
   2 S    1.280000
   2 S    2.100000
   2 S    4.600000
   2 P    0.820000
   2 P    1.480000
   2 P    2.940000
   3 D    2.200000

 Atom Type    2  (H)
 ==============

 Valence Basis Sets:   4
 -----------------------
   1 S    0.690000
   1 S    0.920000
   1 S    1.580000
   2 P    1.250000


 BAS: List of all Elementary Cartesian Basis Functions
 =====================================================

 The numbering in the list below (to the right of the function characteristics) is referred
 to in print-outs of MO eigenvectors and Mulliken populations in the BAS representation
 (as contrasted to the SFO representation).

 Notes:
 1. The functions are characterized by a polynomial prefactor (powers of x,y,z and r) and
    an exponential decay factor alpha.
 2. Since the basis sets are specific for an atom TYPE, the individual functions occur on
    all atoms of that type.
 3. The word 'Core' in the left margin signals that it is a Core Function (CF) : not a
    degree of freedom in the valence set, but only used to ensure orthogonalization of
    the other valence basis functions on the frozen Core Orbitals.


 (power of) X  Y  Z  R     Alpha  on Atom
            ==========     =====     ==========

 C                                    1    2    3    4    5    6
                                  ---------------------------------------------------------------------------
            0  0  0  0     7.680      1   21   41   61   81  101
            0  0  0  0     5.000      2   22   42   62   82  102
            0  0  0  1     1.280      3   23   43   63   83  103
            0  0  0  1     2.100      4   24   44   64   84  104
            0  0  0  1     4.600      5   25   45   65   85  105
            1  0  0  0     0.820      6   26   46   66   86  106
            0  1  0  0     0.820      7   27   47   67   87  107
            0  0  1  0     0.820      8   28   48   68   88  108
            1  0  0  0     1.480      9   29   49   69   89  109
            0  1  0  0     1.480     10   30   50   70   90  110
            0  0  1  0     1.480     11   31   51   71   91  111
            1  0  0  0     2.940     12   32   52   72   92  112
            0  1  0  0     2.940     13   33   53   73   93  113
            0  0  1  0     2.940     14   34   54   74   94  114
            2  0  0  0     2.200     15   35   55   75   95  115
            1  1  0  0     2.200     16   36   56   76   96  116
            1  0  1  0     2.200     17   37   57   77   97  117
            0  2  0  0     2.200     18   38   58   78   98  118
            0  1  1  0     2.200     19   39   59   79   99  119
            0  0  2  0     2.200     20   40   60   80  100  120

 H                                    7    8    9   10   11   12
                                  ---------------------------------------------------------------------------
            0  0  0  0     0.690    121  127  133  139  145  151
            0  0  0  0     0.920    122  128  134  140  146  152
            0  0  0  0     1.580    123  129  135  141  147  153
            1  0  0  0     1.250    124  130  136  142  148  154
            0  1  0  0     1.250    125  131  137  143  149  155
            0  0  1  0     1.250    126  132  138  144  150  156

 Total number of charge fitting functions (nprimf)       804
 Total number of Cartesian basis functions (naos)        156
 Total number of Cartesian core functions  (ncos)          0

1
 ***************************************************************************************************



                                              ***********************
                                              *  T E C H N I C A L  *
                                              ***********************
  



 =============================================================
 P A R A L L E L I Z A T I O N  and  V E C T O R I Z A T I O N
 =============================================================
  
 Nr of parallel processes:                                6
 Maximum vector length in NumInt loops:                 128



 =====================
 S C F   U P D A T E S
 =====================
  
 Max. nr. of cycles:                               300
 Convergence criterion:                              0.0000010000
   secondary criterion:                              0.0010000000

 Mix parameter (when DIIS does not apply):           0.2000000000
 Mixed ADIIS+SDIIS will be used                  
    Max number of expansion vectors:                10
    Pure ADIIS when Max([F,P]) is above              0.1000000000
    Pure SDIIS when Max([F,P]) is below              0.0010000000
 Automatic ElectronSmearing (in case of problematic SCF convergence) disabled



 =================
 P R E C I S I O N  ***  (General: NumInt, NeglectFunctionTails, ...)  ***
 =================
  

 NumInt:           Target precision:                 4.0000000000
 -------           Initial precision:                4.0000000000
                   Min. precision (optimization):    4.0000000000

 Neglect Functions:          Basis functions:        0.1000000000E-13
 ------------------          Fit functions:          0.1000000000E-13



 ===========================
 L I N E A R   S C A L I N G
 ===========================
  

 Cut-off radii density fit:                        0.1000000000E-07
 Overlap cut-off criterion AO matrix elements:     0.1000000000E-05
 Cut-offs for Coulomb potential and fitted density:0.1000000000E-07
 Cut-off criterion for Coulomb multipole terms:    0.1000000000E-07
 Progressive Convergence parameter:                 0.000000000    
1
 ***************************************************************************************************



                                            ***************************
                                            *  C O M P U T A T I O N  *
                                            ***************************
  

 Number of elements of the density matrix on this node (used, total):      1962     12246



 ===========================================
 Numerical Integration : Fuzzy Cells (Becke)
 ===========================================
  
 Becke grid quality: NORMAL         
  
 Lebedev angular grid order:             min:  11 max:  23
 Nr. of radial points:                   min:  46 max:  52

 Total nr. of points:      75660
 Nr. of blocks:              592
 Block length:               128
 Nr. of dummy points:        116


 Test of Precision of the Numerical Integration Grid
 ===================================================

 Integral of the Total Core Density:                   0.00000000000000



 ========================
 Density Fitting (zlmFit)
 ========================
  
 ZlmFit Fit Quality: NORMAL         
  
 Max L-expansion:                        min:   5 max:   6
 Nr. of radial interpolation points:     min:  36 max:  48



 =====
 S C F  ***  ScaSCF  ***
 =====
  
 Initial density matrix is calculated as sum of fragments

 CYCLE    1
 SCF Error: norm([F,P])=      5.990964987974, max([F,P])=      0.981180223771
 orbitals (Q,E):
 ---------------
 A :12...31          ( 2.00    -0.6583)  ( 2.00    -0.6250)  ( 2.00    -0.5884)  ( 2.00    -0.5694)
                     ( 2.00    -0.5687)  ( 2.00    -0.5031)  ( 2.00    -0.5025)  ( 2.00    -0.5006)
                     ( 2.00    -0.4062)  ( 2.00    -0.4049)  ( 0.00    -0.2156)  ( 0.00    -0.2146)
                     ( 0.00    -0.0768)  ( 0.00    -0.0731)  ( 0.00    -0.0377)  ( 0.00    -0.0373)
                     ( 0.00    -0.0111)  ( 0.00    -0.0111)  ( 0.00     0.0270)  ( 0.00     0.0510)

 CYCLE    2
   MIX coefficients:  0.8000  0.2000
 SCF Error: norm([F,P])=      0.892364682871, max([F,P])=      0.187835703056
 orbitals (Q,E):
 ---------------
 A :12...22          ( 2.00    -0.5946)  ( 2.00    -0.5421)  ( 2.00    -0.5328)  ( 2.00    -0.5023)
                     ( 2.00    -0.5019)  ( 2.00    -0.4366)  ( 2.00    -0.4353)  ( 2.00    -0.4334)
                     ( 2.00    -0.3393)  ( 2.00    -0.3384)  ( 0.00    -0.1506)

 CYCLE    3
  SDIIS (wt  0.000): -1.2668  2.2668
 A-DIIS (wt  1.000):  0.0000  1.0000
  DIIS coefficients:  0.0000  1.0000
 SCF Error: norm([F,P])=      0.521464094693, max([F,P])=      0.102858543186
 orbitals (Q,E):
 ---------------
 A :12...22          ( 2.00    -0.3985)  ( 2.00    -0.3563)  ( 2.00    -0.2967)  ( 2.00    -0.2965)
                     ( 2.00    -0.2949)  ( 2.00    -0.2475)  ( 2.00    -0.2236)  ( 2.00    -0.2218)
                     ( 2.00    -0.1500)  ( 2.00    -0.1496)  ( 0.00     0.0285)

 CYCLE    4
  SDIIS (wt  0.000):  0.1837  0.3521  0.4642
 A-DIIS (wt  1.000): -0.0000  0.6403  0.3597
  DIIS coefficients: -0.0000  0.6403  0.3597
 SCF Error: norm([F,P])=      0.743293999209, max([F,P])=      0.173225508075
 orbitals (Q,E):
 ---------------
 A :12...22          ( 2.00    -0.4673)  ( 2.00    -0.4037)  ( 2.00    -0.3933)  ( 2.00    -0.3709)
                     ( 2.00    -0.3706)  ( 2.00    -0.3293)  ( 2.00    -0.2979)  ( 2.00    -0.2961)
                     ( 2.00    -0.2290)  ( 2.00    -0.2282)  ( 0.00    -0.0410)

 CYCLE    5
  SDIIS (wt  0.902): -0.0173  0.2161  0.0732  0.7280
 A-DIIS (wt  0.098):  0.0000  0.0000  0.0000  1.0000
  DIIS coefficients: -0.0156  0.1950  0.0661  0.7546
 SCF Error: norm([F,P])=      0.076236196554, max([F,P])=      0.010664589273
 orbitals (Q,E):
 ---------------
 A :12...22          ( 2.00    -0.4793)  ( 2.00    -0.4187)  ( 2.00    -0.4084)  ( 2.00    -0.3827)
                     ( 2.00    -0.3825)  ( 2.00    -0.3380)  ( 2.00    -0.3119)  ( 2.00    -0.3100)
                     ( 2.00    -0.2387)  ( 2.00    -0.2380)  ( 0.00    -0.0516)

 CYCLE    6
  SDIIS (wt  0.993): -0.0027  0.0315  0.0083  0.1929  0.7700
 A-DIIS (wt  0.007):  0.0000  0.0000  0.0000  0.0000  1.0000
  DIIS coefficients: -0.0027  0.0313  0.0082  0.1915  0.7717
 SCF Error: norm([F,P])=      0.010721380055, max([F,P])=      0.001736474500
 orbitals (Q,E):
 ---------------
 A :12...22          ( 2.00    -0.4790)  ( 2.00    -0.4180)  ( 2.00    -0.4074)  ( 2.00    -0.3826)
                     ( 2.00    -0.3823)  ( 2.00    -0.3374)  ( 2.00    -0.3113)  ( 2.00    -0.3094)
                     ( 2.00    -0.2381)  ( 2.00    -0.2372)  ( 0.00    -0.0507)

 CYCLE    7
  SDIIS (wt  1.000):  0.0001  0.0073  0.0016  0.0534  0.2404  0.6972
  DIIS coefficients:  0.0001  0.0073  0.0016  0.0534  0.2404  0.6972
 SCF Error: norm([F,P])=      0.001588428538, max([F,P])=      0.000361680778
 orbitals (Q,E):
 ---------------
 A :12...22          ( 2.00    -0.4791)  ( 2.00    -0.4181)  ( 2.00    -0.4075)  ( 2.00    -0.3826)
                     ( 2.00    -0.3824)  ( 2.00    -0.3375)  ( 2.00    -0.3114)  ( 2.00    -0.3095)
                     ( 2.00    -0.2382)  ( 2.00    -0.2374)  ( 0.00    -0.0509)

 CYCLE    8
  SDIIS (wt  1.000):  0.0007  0.0008  0.0000  0.0125  0.0697  0.4782  0.4381
  DIIS coefficients:  0.0007  0.0008  0.0000  0.0125  0.0697  0.4782  0.4381
 SCF Error: norm([F,P])=      0.001185058443, max([F,P])=      0.000285870611
 orbitals (Q,E):
 ---------------
 A :12...22          ( 2.00    -0.4791)  ( 2.00    -0.4181)  ( 2.00    -0.4075)  ( 2.00    -0.3827)
                     ( 2.00    -0.3824)  ( 2.00    -0.3376)  ( 2.00    -0.3114)  ( 2.00    -0.3096)
                     ( 2.00    -0.2382)  ( 2.00    -0.2374)  ( 0.00    -0.0509)

 CYCLE    9
  SDIIS (wt  1.000):  0.0001 -0.0002 -0.0000 -0.0004 -0.0008  0.0121  0.0458  0.9435
  DIIS coefficients:  0.0001 -0.0002 -0.0000 -0.0004 -0.0008  0.0121  0.0458  0.9435
 SCF Error: norm([F,P])=      0.000050764910, max([F,P])=      0.000011064087
 orbitals (Q,E):
 ---------------
 A :12...22          ( 2.00    -0.4791)  ( 2.00    -0.4181)  ( 2.00    -0.4076)  ( 2.00    -0.3827)
                     ( 2.00    -0.3824)  ( 2.00    -0.3376)  ( 2.00    -0.3114)  ( 2.00    -0.3096)
                     ( 2.00    -0.2382)  ( 2.00    -0.2374)  ( 0.00    -0.0509)

 CYCLE   10
  SDIIS (wt  1.000):  0.0000 -0.0001 -0.0000 -0.0002 -0.0004  0.0053  0.0208  0.4380  0.5366
  DIIS coefficients:  0.0000 -0.0001 -0.0000 -0.0002 -0.0004  0.0053  0.0208  0.4380  0.5366
 SCF Error: norm([F,P])=      0.000008365755, max([F,P])=      0.000002277684
 orbitals (Q,E):
 ---------------
 A :12...22          ( 2.00    -0.4791)  ( 2.00    -0.4181)  ( 2.00    -0.4076)  ( 2.00    -0.3827)
                     ( 2.00    -0.3824)  ( 2.00    -0.3376)  ( 2.00    -0.3114)  ( 2.00    -0.3096)
                     ( 2.00    -0.2382)  ( 2.00    -0.2374)  ( 0.00    -0.0509)

 CYCLE   11
  SDIIS (wt  1.000):  0.0000 -0.0000 -0.0000 -0.0000 -0.0000  0.0001  0.0005  0.0155  0.4838  0.5002
  DIIS coefficients:  0.0000 -0.0000 -0.0000 -0.0000 -0.0000  0.0001  0.0005  0.0155  0.4838  0.5002
 SCF Error: norm([F,P])=      0.000007871049, max([F,P])=      0.000002000919
 orbitals (Q,E):
 ---------------
 A :12...22          ( 2.00    -0.4791)  ( 2.00    -0.4181)  ( 2.00    -0.4076)  ( 2.00    -0.3827)
                     ( 2.00    -0.3824)  ( 2.00    -0.3376)  ( 2.00    -0.3114)  ( 2.00    -0.3096)
                     ( 2.00    -0.2382)  ( 2.00    -0.2374)  ( 0.00    -0.0509)

 CYCLE   12
  SDIIS (wt  1.000): -0.0000 -0.0000  0.0000 -0.0000 -0.0002 -0.0004 -0.0061  0.2589  0.2813  0.4664
  DIIS coefficients: -0.0000 -0.0000  0.0000 -0.0000 -0.0002 -0.0004 -0.0061  0.2589  0.2813  0.4664
 SCF Error: norm([F,P])=      0.000000882803, max([F,P])=      0.000000243157
 orbitals (Q,E):
 ---------------
 A :12...22          ( 2.00    -0.4791)  ( 2.00    -0.4181)  ( 2.00    -0.4076)  ( 2.00    -0.3827)
                     ( 2.00    -0.3824)  ( 2.00    -0.3376)  ( 2.00    -0.3114)  ( 2.00    -0.3096)
                     ( 2.00    -0.2382)  ( 2.00    -0.2374)  ( 0.00    -0.0509)

 SCF CONVERGED

 CYCLE   13
1
 ***************************************************************************************************



                                                *******************
                                                *  R E S U L T S  *
                                                *******************
  
 *** Using FIT density in Focky
  SDIIS (wt  1.000): -0.0000  0.0000 -0.0000 -0.0001 -0.0002 -0.0031  0.0996  0.1102  0.2870  0.5066
  DIIS coefficients: -0.0000  0.0000 -0.0000 -0.0001 -0.0002 -0.0031  0.0996  0.1102  0.2870  0.5066
 SCF Error: norm([F,P])=      0.000000303997, max([F,P])=      0.000000077303

 Orbital Energies, per Irrep and Spin:
 ======================================
                        Occup              E (au)              E (eV)       Diff (eV) with prev. cycle
                        -----      --------------------        ------       --------------------------
 A
              12        2.000     -0.47912474557035E+00       -13.038              -5.40E-08
              13        2.000     -0.41810609544944E+00       -11.377              -5.62E-08
              14        2.000     -0.40755674692378E+00       -11.090              -5.36E-08
              15        2.000     -0.38271690228697E+00       -10.414               1.35E-07
              16        2.000     -0.38240876091815E+00       -10.406              -2.34E-07
              17        2.000     -0.33757510985298E+00        -9.186              -5.56E-08
              18        2.000     -0.31142435016979E+00        -8.474              -1.37E-07
              19        2.000     -0.30956242807568E+00        -8.424               3.69E-08
              20        2.000     -0.23824587768095E+00        -6.483               4.50E-08
              21        2.000     -0.23744706620153E+00        -6.461              -1.51E-07
              22        0.000     -0.50925613933964E-01        -1.386
              23        0.000     -0.49781509150422E-01        -1.355
              24        0.000      0.20384275427107E-02         0.055
              25        0.000      0.27835526252666E-01         0.757
              26        0.000      0.27873724484606E-01         0.758
              27        0.000      0.60694647426616E-01         1.652
              28        0.000      0.60788539855449E-01         1.654
              29        0.000      0.90665493295590E-01         2.467
              30        0.000      0.96122074219078E-01         2.616
              31        0.000      0.14212710399719E+00         3.867
  
 HOMO :       21 A                -0.23744706620153E+00
 LUMO :       22 A                -0.50925613933964E-01
  


 All Electron Calculation, thus no Orbital Energies of the Core Orbitals are calculated


 Fit test: (difference of exact and fit density, squared integrated, result summed over spins)
         Sum-of-Fragments:                             0.00000000048369
         Orthogonalized Fragments:                     0.00013301197588
         SCF:                                          0.00048726367668



 ==========================
 Electron Density at Nuclei
 ==========================
  
 The electron density is calculated at points on a small sphere around the center of a nucleus.
 The printed electron density is the average electron density on these points.
 The radius of the sphere is the printed approximate finite nuclear radius.

         Atom        Nuclear Radius (Angstrom)             Electron Density (a.u.)
         ----        -------------------------             -----------------------
     1)   C                 0.0000320678                              126.51488
     2)   C                 0.0000320678                              126.51546
     3)   C                 0.0000320678                              126.51451
     4)   C                 0.0000320678                              126.51489
     5)   C                 0.0000320678                              126.51546
     6)   C                 0.0000320678                              126.51448
     7)   H                 0.0000181514                                0.49863
     8)   H                 0.0000181514                                0.49864
     9)   H                 0.0000181514                                0.49881
    10)   H                 0.0000181514                                0.49863
    11)   H                 0.0000181514                                0.49858
    12)   H                 0.0000181514                                0.49881



 =======================================
 M U L L I K E N   P O P U L A T I O N S
 =======================================
  
 The survey below gives for each atom:
 a) the total charge (Z minus electrons)
 b) the net spin polarization (nr of electrons spin-A minus spin-B)
 c) for each spin the atomic electron valence density (integrated) per L-value.

 Atom              Charge    Spin density          S         P         D         F
 ----              ------    ------------       ------    ------    ------    ------
 1 C               0.1754                       3.0636    2.6999    0.0611    0.0000
 2 C               0.1757                       3.0658    2.6976    0.0609    0.0000
 3 C               0.1755                       3.0654    2.6982    0.0609    0.0000
 4 C               0.1754                       3.0636    2.6999    0.0611    0.0000
 5 C               0.1757                       3.0658    2.6976    0.0609    0.0000
 6 C               0.1755                       3.0655    2.6982    0.0609    0.0000
 7 H              -0.1759                       1.1045    0.0715    0.0000    0.0000
 8 H              -0.1757                       1.1042    0.0714    0.0000    0.0000
 9 H              -0.1750                       1.1037    0.0713    0.0000    0.0000
 10 H             -0.1759                       1.1044    0.0715    0.0000    0.0000
 11 H             -0.1756                       1.1042    0.0714    0.0000    0.0000
 12 H             -0.1750                       1.1037    0.0713    0.0000    0.0000

 Populations of individual BAS functions
 ----------------------------------------
 1 C            0.4870  1.5144  0.2284  0.8874 -0.0535 -0.1022  0.1467 -0.2383  0.8052  0.6787
                0.8826  0.2005  0.1367  0.1900  0.0270  0.0123  0.0174 -0.0175  0.0040  0.0180
 2 C            0.4870  1.5144  0.2307  0.8873 -0.0535 -0.2029  0.1478 -0.1395  0.8623  0.6777
                0.8261  0.1927  0.1365  0.1969  0.0183  0.0062  0.0219 -0.0175  0.0099  0.0220
 3 C            0.4869  1.5145  0.2303  0.8873 -0.0535 -0.2077  0.1477 -0.1341  0.8651  0.6778
                0.8231  0.1925  0.1366  0.1973  0.0182  0.0060  0.0215 -0.0175  0.0102  0.0226
 4 C            0.4870  1.5144  0.2284  0.8874 -0.0535 -0.1022  0.1467 -0.2383  0.8052  0.6787
                0.8826  0.2005  0.1367  0.1900  0.0270  0.0123  0.0174 -0.0175  0.0040  0.0180
 5 C            0.4870  1.5144  0.2307  0.8873 -0.0535 -0.2028  0.1478 -0.1395  0.8623  0.6777
                0.8261  0.1927  0.1365  0.1969  0.0183  0.0062  0.0219 -0.0175  0.0099  0.0220
 6 C            0.4869  1.5145  0.2303  0.8872 -0.0535 -0.2077  0.1477 -0.1341  0.8650  0.6778
                0.8231  0.1924  0.1366  0.1973  0.0182  0.0060  0.0215 -0.0175  0.0102  0.0226
 7 H            0.2097  0.5760  0.3188  0.0289  0.0217  0.0208
 8 H            0.2093  0.5762  0.3188  0.0296  0.0217  0.0201
 9 H            0.2087  0.5760  0.3190  0.0162  0.0217  0.0334
 10 H           0.2096  0.5760  0.3188  0.0289  0.0217  0.0208
 11 H           0.2092  0.5762  0.3188  0.0296  0.0217  0.0201
 12 H           0.2087  0.5760  0.3190  0.0162  0.0217  0.0334

 Gross Charges per Atom (Z minus electrons)
 ==========================================
             0.1754    0.1757    0.1755    0.1754    0.1757    0.1755   -0.1759   -0.1757   -0.1750   -0.1759
            -0.1756   -0.1750
 Net Total: -0.00000000


 Atom-Atom Population Matrix (off-diagonal elements not doubled)
 ===============================================================

     1 :     4.5208
     2 :     0.5422    4.5236
     3 :    -0.0111    0.5404    4.5231
     4 :    -0.0553   -0.0108    0.5427    4.5208
     5 :    -0.0108   -0.0558   -0.0100    0.5422    4.5236
     6 :     0.5427   -0.0100   -0.0556   -0.0111    0.5404    4.5231
     7 :    -0.0531    0.3938   -0.0536    0.0021    0.0042    0.0020    0.9819
     8 :     0.0022   -0.0537    0.3939   -0.0531    0.0021    0.0041   -0.0477    0.9817
     9 :     0.0040    0.0023   -0.0537    0.3940   -0.0538    0.0023   -0.0038   -0.0475    0.9812
    10 :     0.0021    0.0042    0.0020   -0.0531    0.3938   -0.0536    0.0016   -0.0039   -0.0475    0.9819
    11 :    -0.0531    0.0021    0.0041    0.0022   -0.0537    0.3939   -0.0039    0.0016   -0.0038   -0.0477
             0.9816
    12 :     0.3940   -0.0538    0.0023    0.0040    0.0023   -0.0537   -0.0476   -0.0038    0.0015   -0.0038
            -0.0475    0.9811



 =================================================
 H I R S H F E L D   C H A R G E   A N A L Y S I S
 =================================================
  
 For each fragment: the (numerical) integral of rho(scf) * rho(fragment)/rho(sum-of-fragments)
 (nuclear charges are included, electrons are counted negative)

 The fragments and their ordering are defined in the early G E O M E T R Y output section.
 If you use single-atom fragments, this usually implies that all atoms of the same
 chemical type are grouped together. This may not be the order in which you listed them
 in the input file!

    1  C                        -0.0466
    2  C                        -0.0461
    3  C                        -0.0462
    4  C                        -0.0466
    5  C                        -0.0461
    6  C                        -0.0462
    7  H                         0.0464
    8  H                         0.0463
    9  H                         0.0461
   10  H                         0.0464
   11  H                         0.0463
   12  H                         0.0461

 Sum of these charges (accuracy NumInt/Tails) =          -0.00005990



 =============================
 V O R O N O I   C H A R G E S
 =============================
  
 For each atom: the (numerical) integral of the total electronic charge density in its Voronoi cell,
 i.e. the region of space that is closer to that atom than to any other atom.
 (cf. Wigner-Seitz cells in crystals)

 Within the Voronoi cell the subintegrals over the atomic sphere and the remaining part are evaluated
 separately to give the numbers of electrons (negative charge) in these regions.
 The net total charge in the cell (including the nuclear charge) is also given.

 Values are provided for
    a) the Initial (sum-of-fragments) density
    b) the Orthogonalized-Fragments density
    c) the SCF density
    d) the Voronoi Deformation Density (VDD): the difference SCF-Initial for the complete atomic cell


  Atom                Initial                    OrthFrag                   SCF
             Sphere RestCell NetTotal   Sphere RestCell NetTotal   Sphere RestCell NetTotal      VDD
 -----       ------------------------   ------------------------   ------------------------    -----
    1 C      -2.269   -3.185    0.546   -2.453   -3.136    0.411   -2.303   -3.206    0.491   -0.055
    2 C      -2.268   -3.189    0.542   -2.452   -3.137    0.411   -2.303   -3.207    0.490   -0.052
    3 C      -2.269   -3.185    0.546   -2.452   -3.138    0.410   -2.303   -3.207    0.490   -0.056
    4 C      -2.269   -3.185    0.546   -2.453   -3.136    0.411   -2.303   -3.206    0.491   -0.055
    5 C      -2.268   -3.189    0.542   -2.452   -3.137    0.411   -2.303   -3.207    0.490   -0.052
    6 C      -2.269   -3.185    0.546   -2.452   -3.138    0.410   -2.303   -3.207    0.490   -0.056
    7 H      -0.075   -1.474   -0.549   -0.096   -1.318   -0.414   -0.109   -1.385   -0.493    0.055
    8 H      -0.075   -1.468   -0.543   -0.096   -1.313   -0.409   -0.109   -1.379   -0.488    0.055
    9 H      -0.075   -1.469   -0.544   -0.096   -1.314   -0.410   -0.109   -1.381   -0.490    0.054
   10 H      -0.075   -1.474   -0.549   -0.096   -1.318   -0.414   -0.109   -1.385   -0.493    0.055
   11 H      -0.075   -1.468   -0.543   -0.096   -1.313   -0.409   -0.109   -1.379   -0.488    0.055
   12 H      -0.075   -1.469   -0.544   -0.096   -1.314   -0.410   -0.109   -1.381   -0.490    0.054
 ---------------------------------------------------------------------------------------------------
 Total NetCharge:              -0.000                     -0.000                     -0.000    0.000
 (accuracy NumInt/Tails)

 Remark: the 'NetTotal' Voronoi charges often do not match the Mulliken and/or Hirshfeld charges very
 well. This is caused by the fact that chemically different atoms are not treated in accordance with
 their relative sizes. (Voronoi cells are defined by boundary planes halfway between the atoms.)
 However, the CHANGES in charge, comparing 'Initial' to 'SCF' for instance, do give a fair indication
 of the flow of charge caused by the relaxation from sum-of-fragments to self-consistency.

 Warning: the absolute accuracy of the VDD charges obtained using the Fuzzy Cells (Becke) integration
 scheme is much poorer than the one obtained with an 'equivalent' Voronoi integration grid. 



 =================================================================
 M U L T I P O L E   D E R I V E D   C H A R G E   A N A L Y S I S
 =================================================================

 This charge analysis uses the atomic multipoles (obtained from the fitted density) up to some level X,
 and reconstructs these multipoles exactly (up to level X) by distributing charges over all atoms.
 This is achieved by using Lagrange multipliers and a weight function to keep the multipoles local.

 Dummy atoms can be included (by setting INCDUM in MDC-block to 1) to obtain a fractional charge.
 This is generally useful and necessary only for small symmetrical molecules, when there are not
 enough degrees of freedom to reconstruct the multipoles.

 Since the atomic multipoles are reconstructed up to level X,
 the molecular multipoles are represented also up to level X.
 The recommended level is to reconstruct up to quadrupole : -> MDC-q charges.

 See: M. Swart, P.Th. van Duijnen, J.G. Snijders, J.Comput.Chem., (2001), p. 79-88.

 ------------------------------------------------------------- 
 Atomic electronic multipole moments from SCF equations (a.u.)
 ------------------------------------------------------------- 

   atom        charge        dip-x     dip-y     dip-z      quad-xx   quad-xy   quad-xz   quad-yy   quad-yz   quad-zz
 --------------------------------------------------------------------------------------------------------------------
    1 C      0.060884     0.001157  0.000000 -0.046808     0.469943  0.000000 -0.000178 -0.996110 -0.000000  0.526167
    2 C      0.060443    -0.041848 -0.000000 -0.026380     0.512258  0.000000  0.014392 -0.994155  0.000000  0.481897
    3 C      0.060583    -0.042103  0.000000  0.024304     0.516087  0.000000 -0.013775 -0.995024  0.000000  0.478937
    4 C      0.060884    -0.001179  0.000000  0.046810     0.469957  0.000000 -0.000225 -0.996112 -0.000000  0.526156
    5 C      0.060442     0.041845  0.000000  0.026380     0.512263  0.000000  0.014396 -0.994153 -0.000000  0.481890
    6 C      0.060575     0.042076 -0.000000 -0.024278     0.516106  0.000000 -0.013752 -0.995021  0.000000  0.478915
    7 H     -0.060478    -0.019800 -0.000000 -0.011571     0.161250  0.000000  0.080255 -0.195586  0.000000  0.034336
    8 H     -0.060540    -0.020147 -0.000000  0.010533     0.171690 -0.000000 -0.076225 -0.195788 -0.000000  0.024098
    9 H     -0.060894    -0.000393 -0.000000  0.022390    -0.038661 -0.000000 -0.003729 -0.194578  0.000000  0.233238
   10 H     -0.060477     0.019801  0.000000  0.011573     0.161249 -0.000000  0.080257 -0.195585 -0.000000  0.034335
   11 H     -0.060530     0.020167  0.000000 -0.010535     0.171696  0.000000 -0.076218 -0.195784 -0.000000  0.024087
   12 H     -0.060893     0.000376 -0.000000 -0.022391    -0.038666 -0.000000 -0.003711 -0.194576  0.000000  0.233242

 --------------------------------------- 
 Multipole derived atomic charges (a.u.)
 --------------------------------------- 

 The MDC-m charges are just the Monopole terms in the multipole expansion, while for the MDC-d charges
 also the Dipoles are reconstructed. The usually preferred charges are the MDC-q charges.
 These reconstruct the Monopoles, Dipoles and Quadrupoles (both atomic AND molecular).

        Atom    Level:     MDC-m        MDC-d        MDC-q
 ---------------------------------------------------------
     1     C            0.060884     0.035194    -0.124965
     2     C            0.060443     0.034325    -0.128711
     3     C            0.060583     0.034559    -0.128194
     4     C            0.060884     0.035196    -0.124960
     5     C            0.060442     0.034323    -0.128716
     6     C            0.060575     0.034548    -0.128168
     7     H           -0.060478    -0.034095     0.128038
     8     H           -0.060540    -0.034495     0.127711
     9     H           -0.060894    -0.035483     0.126117
    10     H           -0.060477    -0.034096     0.128038
    11     H           -0.060530    -0.034493     0.127693
    12     H           -0.060893    -0.035484     0.126117

 ------------------------------------------------ 
 Average absolute deviations in atomic multipoles
 ------------------------------------------------ 

 Stated here are the average differences between the atomic multipoles
 and the reconstructed atomic multipoles (from the distributed charges).
 If these values are not zero, this means there are not enough degrees of freedom,
 to be able to reconstruct the atomic multipoles. (This usually happens only
 for small and/or highly symmetric molecules). If this is the case, one could add
 dummy atoms as extra point charges (and setting INCDUM in MDC-block to 1).

 Level:                                 MDC-d        MDC-q
 ---------------------------------------------------------
 Charge   (a.u.)                       0.0000       0.0000
 Dipole   (Debye)                      0.0000       0.0000
 Quad.    (a.u.)                       0.2133       0.0000

 --------------------------------------- 
 Represented molecular multipole moments
 --------------------------------------- 

 Given here are the Molecular multipole moments from the atomic charges, and from the Fit Density.
 Note that the atomic charges represent the latter, NOT the ones from the Exact density.

            Q (a.u.)             Dipole moment (Debye)                                          Quadrupole moment (a.u.)
                                 x         y         z              xx        xy        xz        yy        yz        zz
------------------------------------------------------------------------------------------------------------------------
MDC-m         0.0000        0.0001    0.0000   -0.0000         -1.3775    0.0003   -0.0009    2.7586   -0.0002   -1.3811
MDC-d         0.0000       -0.0001    0.0000    0.0000         -0.7621   -0.0003    0.0097    1.5782    0.0001   -0.8162
MDC-q        -0.0000       -0.0001   -0.0000    0.0000          2.9320   -0.0003    0.0092   -5.7909    0.0001    2.8588
 
Fit.Dens.     0.0000       -0.0001    0.0000    0.0000          2.9320   -0.0003    0.0100   -5.7909    0.0001    2.8588



 =============
 Dipole Moment  ***  (Debye)  ***
 =============
  
 Vector   :        -0.00006257      0.00000006      0.00003127
 Magnitude:         0.00006995

 This molecular dipole moment is calculated with analytic integration



 =========================================
 Quadrupole Moment (Buckingham convention)  ***  (a.u.)  ***
 =========================================
  
      quad-xx        quad-xy        quad-xz        quad-yy        quad-yz        quad-zz
      2.94362859    -0.00027902     0.00971263    -5.81919369     0.00013943     2.87556510

 This molecular quadrupole moment is calculated with analytic integration
1



 =======================================================
 S F O   P O P U L A T I O N S ,   M O   A N A L Y S I S
 =======================================================
  
 A Mulliken population analysis is performed on (input-)selected MOs. All populations refer to SFOs.
 BAS populations may have been printed directly after the SCF part.


                                       === A ===


 SFO contributions (%) per orbital
 (multiplication by the orbital occupation yields the SFO Gross Populations)

 Orb.:       12     13     14     15     16     17     18     19     20     21     22     23     24     25
 occup:     2.00   2.00   2.00   2.00   2.00   2.00   2.00   2.00   2.00   2.00   0.00   0.00   0.00   0.00
 CF+SFO     ----   ----   ----   ----   ----   ----   ----   ----   ----   ----   ----   ----   ----   ----
 ------
      2:    0.25   4.04  -0.00   0.01  -0.00   0.00  -0.00  -0.06   0.00   0.00   0.00   0.00  -0.26   0.00
      3:   -0.08   0.11  -0.00  -0.18  -0.00  -0.00  -0.00  -0.02   0.00   0.00  -0.00  -0.00  -2.66  -0.03
      6:    0.01   0.00  14.54   0.01   0.29   0.00   9.02   0.11   0.00  -0.00  -0.00   0.00   0.00  -1.99
      7:    0.00  -0.00   2.08  -0.00   0.60  -0.00   3.02   0.04   0.00  -0.00   0.00  -0.00  -0.00  -9.22
      9:    0.00  -0.00   0.00   0.00   0.00  17.28   0.00   0.00  31.46   0.25   0.22  34.22   0.00  -0.00
     10:    0.00  -0.00  -0.00  -0.00   0.00  -0.98  -0.00   0.00   0.12   0.00  -0.03  -3.87   0.00  -0.00
     12:   10.74   2.47   0.01  17.86   0.03   0.00   0.08   5.77   0.00  -0.00   0.00  -0.00   0.73   0.04
     13:    0.23   0.27   0.00   1.27  -0.00  -0.00   0.03   1.44  -0.00  -0.00   0.00  -0.00  -0.51  -0.37
     17:    0.00   0.00   0.00  -0.00   0.00   0.00  -0.00  -0.00   0.00   0.61   1.14   0.01  -0.00   0.00
     21:    0.23   4.02  -0.00   0.02   0.03  -0.00  -0.05  -0.01  -0.00  -0.00   0.00   0.00  -0.23   0.02
     22:   -0.08   0.11  -0.00  -0.04  -0.15  -0.00  -0.02  -0.00  -0.00  -0.00   0.00   0.00  -2.71  -0.34
     25:    7.77   2.01   4.14   4.03   8.71   0.00   6.57   0.17   0.00  -0.00  -0.00   0.00   0.52  -0.53
     26:    0.17   0.22   0.55   1.01   0.06   0.00   2.05  -0.14   0.00   0.00  -0.00  -0.00  -0.37 -10.40
     28:   -0.00  -0.00   0.00   0.00   0.00  17.18   0.00  -0.00   5.65  26.15  28.17   6.36  -0.00   0.00
     29:   -0.00   0.00  -0.00  -0.00  -0.00  -0.98  -0.00  -0.00   0.02   0.09  -3.12  -0.70  -0.00   0.00
     31:    2.90   0.71  10.26   0.06   5.36   0.00  -0.14   8.47   0.00  -0.00   0.00  -0.00   0.20   0.03
     32:    0.06   0.07   1.39  -0.21   1.10  -0.00  -0.29   2.90   0.00  -0.00   0.00   0.00  -0.14  -0.03
     40:    0.24   4.03  -0.00   0.02   0.02   0.00  -0.04  -0.02   0.00   0.00  -0.00   0.00  -0.24   0.03
     41:   -0.08   0.11  -0.00  -0.05  -0.13   0.00  -0.01  -0.01   0.00   0.00  -0.00   0.00  -2.70  -0.55
     44:    8.17   2.07   3.66   5.11   8.23  -0.00   6.78  -0.17   0.00  -0.00   0.00   0.00   0.55   0.13
     45:    0.18   0.23   0.49   1.08   0.00  -0.00   2.19  -0.34  -0.00  -0.00  -0.00   0.00  -0.39 -10.61
     47:   -0.00  -0.00   0.00  -0.00   0.00  17.20   0.00   0.00  10.54  21.24  23.32  11.19  -0.00  -0.00
     48:    0.00  -0.00   0.00   0.00  -0.00  -0.98   0.00   0.00   0.04   0.08  -2.60  -1.24   0.00   0.00
     50:    2.51   0.60  10.77   0.19   4.64  -0.00   0.16   8.28   0.00  -0.00   0.00  -0.00   0.17   0.34
     51:    0.05   0.05   1.47  -0.26   1.12   0.00  -0.18   2.85   0.00  -0.00   0.00   0.00  -0.12  -0.34
     59:    0.25   4.04  -0.00   0.01  -0.00   0.00  -0.00  -0.06  -0.00   0.00   0.00   0.00  -0.26   0.00
     60:   -0.08   0.11  -0.00  -0.18  -0.00  -0.00  -0.00  -0.02  -0.00   0.00   0.00  -0.00  -2.66  -0.03
     63:    0.01   0.00  14.54   0.01   0.30  -0.00   9.02   0.11  -0.00   0.00   0.00   0.00   0.00  -1.99
     64:    0.00  -0.00   2.08  -0.00   0.60  -0.00   3.02   0.04   0.00   0.00   0.00   0.00  -0.00  -9.22
     66:    0.00   0.00   0.00   0.00   0.00  17.28  -0.00  -0.00  31.46   0.25   0.22  34.22   0.00   0.00
     67:   -0.00   0.00   0.00   0.00  -0.00  -0.98  -0.00  -0.00   0.12   0.00  -0.03  -3.87   0.00  -0.00
     69:   10.74   2.47   0.01  17.86   0.03  -0.00   0.08   5.77  -0.00  -0.00  -0.00   0.00   0.73   0.04
     70:    0.23   0.27   0.00   1.27  -0.00   0.00   0.03   1.44  -0.00   0.00  -0.00   0.00  -0.51  -0.37
     74:   -0.00  -0.00   0.00   0.00   0.00   0.00   0.00  -0.00   0.00   0.61   1.14   0.01  -0.00   0.00
     78:    0.23   4.02  -0.00   0.02   0.03   0.00  -0.05  -0.01   0.00  -0.00   0.00   0.00  -0.23   0.02
     79:   -0.08   0.11  -0.00  -0.04  -0.15  -0.00  -0.02  -0.00   0.00  -0.00   0.00   0.00  -2.71  -0.34
     82:    7.77   2.01   4.14   4.03   8.71   0.00   6.57   0.17  -0.00   0.00   0.00   0.00   0.52  -0.54
     83:    0.17   0.22   0.55   1.01   0.06   0.00   2.05  -0.14   0.00   0.00  -0.00  -0.00  -0.37 -10.40
     85:    0.00  -0.00   0.00   0.00   0.00  17.18   0.00   0.00   5.65  26.15  28.17   6.36  -0.00   0.00
     86:    0.00   0.00  -0.00  -0.00   0.00  -0.98  -0.00   0.00   0.02   0.09  -3.12  -0.70  -0.00   0.00
     88:    2.89   0.71  10.26   0.06   5.36   0.00  -0.14   8.46  -0.00  -0.00  -0.00  -0.00   0.20   0.03
     89:    0.06   0.07   1.39  -0.21   1.10  -0.00  -0.29   2.90   0.00  -0.00  -0.00  -0.00  -0.14  -0.03
     97:    0.24   4.03  -0.00   0.02   0.02   0.00  -0.04  -0.02  -0.00   0.00   0.00  -0.00  -0.24   0.04
     98:   -0.08   0.11  -0.00  -0.05  -0.13   0.00  -0.01  -0.01  -0.00   0.00   0.00  -0.00  -2.70  -0.55
    101:    8.17   2.07   3.66   5.11   8.23  -0.00   6.78  -0.17  -0.00  -0.00  -0.00  -0.00   0.55   0.13
    102:    0.18   0.23   0.49   1.08   0.00  -0.00   2.19  -0.34  -0.00  -0.00  -0.00   0.00  -0.39 -10.62
    104:   -0.00   0.00  -0.00  -0.00   0.00  17.20   0.00  -0.00  10.54  21.24  23.32  11.19  -0.00   0.00
    105:   -0.00   0.00   0.00   0.00  -0.00  -0.98   0.00  -0.00   0.04   0.08  -2.60  -1.24   0.00   0.00
    107:    2.51   0.60  10.77   0.19   4.64  -0.00   0.16   8.28   0.00   0.00   0.00  -0.00   0.17   0.34
    108:    0.05   0.05   1.47  -0.26   1.12  -0.00  -0.18   2.85  -0.00   0.00  -0.00   0.00  -0.12  -0.34
    115:    5.51   9.32   0.01   2.67  10.12  -0.00  11.03   2.34   0.00   0.00   0.00   0.00   7.83  12.25
    116:   -0.02   0.16   0.00   0.03   0.12   0.00  -0.16  -0.03   0.00   0.00   0.00   0.00  11.30  18.23
    119:    0.00   0.00   0.00  -0.00   0.00   0.25  -0.00   0.00   0.15   0.69   1.12   0.26   0.00   0.00
    121:    5.53   9.23   0.01   3.61   9.27   0.00   8.95   4.42  -0.00   0.00   0.00  -0.00   7.82  19.82
    122:   -0.02   0.16   0.00   0.04   0.11   0.00  -0.13  -0.06   0.00   0.00   0.00   0.00  11.30  29.48
    127:    5.57   8.92   0.00  13.17   0.03   0.00   0.11  13.22   0.00   0.00   0.00  -0.00   7.77   0.91
    128:   -0.02   0.16   0.00   0.16   0.00  -0.00  -0.00  -0.19   0.00  -0.00   0.00  -0.00  11.22   1.35
    131:   -0.00  -0.00  -0.00  -0.00   0.00   0.26   0.00   0.00   0.82   0.01   0.01   1.36   0.00  -0.00
    133:    5.51   9.31   0.01   2.67  10.12  -0.00  11.03   2.34   0.00  -0.00  -0.00   0.00   7.83  12.24
    134:   -0.02   0.16   0.00   0.03   0.12  -0.00  -0.16  -0.03  -0.00   0.00   0.00   0.00  11.30  18.23
    137:    0.00   0.00  -0.00  -0.00   0.00   0.25  -0.00  -0.00   0.15   0.69   1.12   0.26   0.00  -0.00
    139:    5.52   9.23   0.01   3.61   9.28   0.00   8.95   4.42   0.00   0.00   0.00  -0.00   7.83  19.83
    140:   -0.02   0.16   0.00   0.04   0.11  -0.00  -0.13  -0.06   0.00   0.00   0.00  -0.00  11.31  29.48
    145:    5.58   8.91   0.00  13.18   0.03  -0.00   0.11  13.22  -0.00   0.00  -0.00   0.00   7.77   0.91
    146:   -0.02   0.16   0.00   0.16   0.00   0.00  -0.00  -0.19   0.00  -0.00  -0.00  -0.00  11.22   1.34
    149:   -0.00   0.00   0.00  -0.00   0.00   0.26   0.00  -0.00   0.82   0.01   0.01   1.36  -0.00   0.00


 Summation over all MOs, multiplied by occupation: Total SFO Gross Populations in this Irrep
 ===========================================================================================

     2.00    1.07   -0.01   -0.00   -0.00    0.84    0.07   -0.01    0.98   -0.02   -0.00    0.81
     0.03   -0.01    0.02    0.01    0.01    0.02    0.00    2.00    1.07   -0.01   -0.00   -0.00
     0.82    0.04   -0.01    0.98   -0.02   -0.00    0.83    0.06   -0.01    0.02    0.01    0.01
     0.02    0.01    2.00    1.07   -0.01   -0.00   -0.00    0.82    0.04   -0.01    0.98   -0.02
    -0.00    0.83    0.06   -0.01    0.02    0.01    0.01    0.02    0.01    2.00    1.07   -0.01
    -0.00   -0.00    0.84    0.07   -0.01    0.98   -0.02   -0.00    0.81    0.03   -0.01    0.02
     0.01    0.01    0.02    0.00    2.00    1.07   -0.01   -0.00   -0.00    0.82    0.04   -0.01
     0.98   -0.02   -0.00    0.83    0.06   -0.01    0.02    0.01    0.01    0.02    0.01    2.00
     1.07   -0.01   -0.00   -0.00    0.82    0.04   -0.01    0.98   -0.02   -0.00    0.83    0.06
    -0.01    0.02    0.01    0.01    0.02    0.01    1.11   -0.00   -0.00    0.03    0.02    0.02
     1.11   -0.00   -0.00    0.03    0.02    0.02    1.11   -0.00   -0.00    0.02    0.02    0.03
     1.11   -0.00   -0.00    0.03    0.02    0.02    1.11   -0.00   -0.00    0.03    0.02    0.02
     1.11   -0.00   -0.00    0.02    0.02    0.03



 List of all MOs, ordered by energy, with the most significant SFO gross populations
 ===================================================================================

 Each percentage contribution in the table below corresponds to the indicated SFO.
 In general, a SFO may be a linear combination of several Fragment Orbitals on the same,
 or on symmetry-related Fragments. Only the first 'member' of such a combination is
 specified here. A full definition of all SFOs is given in an earlier part of the output.
 The numbering of the SFOs in this table does NOT include the Core Orbitals, and starts
 from one for each symmetry representation, as in the SFO definition list earlier.

       E(eV)  Occ       MO           %     SFO (first member)   E(eV)  Occ   Fragment
 -------------------------------------------------------------------------------------

     -21.394  2.00     7 A         14.65%     2 S             -13.876  2.00     4 C
                                   14.65%     2 S             -13.876  2.00     1 C
                                   14.58%     2 S             -13.876  2.00     3 C
                                   14.57%     2 S             -13.876  2.00     6 C
                                   14.56%     2 S             -13.876  2.00     2 C
                                   14.56%     2 S             -13.876  2.00     5 C
                                    2.36%     1 P:z            -5.403  0.67     4 C
                                    2.36%     1 P:z            -5.403  0.67     1 C
                                    1.84%     1 P:x            -5.403  0.67     6 C
                                    1.84%     1 P:x            -5.403  0.67     3 C
                                    1.75%     1 P:x            -5.403  0.67     5 C
                                    1.75%     1 P:x            -5.403  0.67     2 C
                                    1.24%     1 S              -6.626  1.00     7 H
                                    1.24%     1 S              -6.626  1.00    10 H
                                    1.24%     1 S              -6.626  1.00     8 H
                                    1.23%     1 S              -6.626  1.00     9 H
                                    1.23%     1 S              -6.626  1.00    11 H
                                    1.23%     1 S              -6.626  1.00    12 H
     -18.631  2.00     8 A         22.92%     2 S             -13.876  2.00     1 C
                                   22.92%     2 S             -13.876  2.00     4 C
                                    7.25%     2 S             -13.876  2.00     3 C
                                    7.25%     2 S             -13.876  2.00     6 C
                                    5.64%     1 S              -6.626  1.00    12 H
                                    5.64%     1 S              -6.626  1.00     9 H
                                    4.44%     2 S             -13.876  2.00     2 C
                                    4.44%     2 S             -13.876  2.00     5 C
                                    2.99%     1 P:z            -5.403  0.67     2 C
                                    2.99%     1 P:z            -5.403  0.67     5 C
                                    2.59%     1 P:z            -5.403  0.67     3 C
                                    2.59%     1 P:z            -5.403  0.67     6 C
                                    1.77%     1 S              -6.626  1.00     8 H
                                    1.77%     1 S              -6.626  1.00    11 H
                                    1.60%     1 P:x            -5.403  0.67     2 C
                                    1.60%     1 P:x            -5.403  0.67     5 C
                                   -1.31%     2 P:z             4.709  0.00     2 C
                                   -1.31%     2 P:z             4.709  0.00     5 C
                                    1.30%     1 P:x            -5.403  0.67     6 C
                                    1.30%     1 P:x            -5.403  0.67     3 C
                                   -1.25%     2 P:z             4.709  0.00     3 C
                                   -1.25%     2 P:z             4.709  0.00     6 C
                                    1.09%     1 S              -6.626  1.00     7 H
[...]
 CRIT  3.862148519386170E-002
 iter. 10 V(1) measure  0.8920651536503E+05
       10        delta  0.1543062612327E+00
 CRIT  3.334547159863235E-002
 iter. 11 V(1) measure  0.8920640698533E+05
       11        delta  0.1083796995663E+00
 CRIT  1.061403078052457E-002
 iter. 12 V(1) measure  0.8920645164218E+05
       12        delta  0.4465685563628E-01
 *** convergence reached

    RRIJmat_z_z         
    using first order VWN potential
 
    NOTE: We will NOT use the GGA kernel (input option ALDA was set)
 
 CRIT   1.00000000000000     
 iter.  1 V(1) measure  0.1297524109422E+04
 *** convergence criterion : .1297524E-02
 CRIT   148.659388579477     
 iter.  2 V(1) measure  0.1070679851222E+04
        2        delta  0.2268442582002E+03
 CRIT   56.3378595844699     
 iter.  3 V(1) measure  0.1106131149150E+04
        3        delta  0.3545129792792E+02
 CRIT   15.4672879806810     
 iter.  4 V(1) measure  0.1111633109110E+04
        4        delta  0.5501959960701E+01
 CRIT   3.53049984998490     
 iter.  5 V(1) measure  0.1112523851658E+04
        5        delta  0.8907425476916E+00
 CRIT   1.53290451177706     
 iter.  6 V(1) measure  0.1112625645212E+04
        6        delta  0.1017935536213E+00
 CRIT  0.196824312690291     
 iter.  7 V(1) measure  0.1112623840429E+04
        7        delta  0.1804782575164E-02
 CRIT  4.245323890343701E-002
 iter.  8 V(1) measure  0.1112622206672E+04
        8        delta  0.1633757057107E-02
 CRIT  5.743366040913435E-002
 iter.  9 V(1) measure  0.1112619948346E+04
        9        delta  0.2258326259152E-02
 CRIT  4.457719703014760E-003
 iter. 10 V(1) measure  0.1112620063950E+04
       10        delta  0.1156047649147E-03
 *** convergence reached
 ------------------------------------------
 Convergence acceleration: T
 QUADRUPOLE-QUADRUPOLE POLARIZABILITY     
 Frequency  =  0.1322975682     Hartrees
 Wavelength =   344.4005294     nm
 Wavenumber =   29035.96001     cm^{-1}
 Energy     =   3.600000000     eV
 ------------------------------------------
 QUADRUPOLE-QUADRUPOLE Polarizability tensor:
 
 xx xx     4190.66395658187     
 xx xy    0.136116408494885     
 xx xz   -0.214293491730952     
 xx yy    -4992.43381262674     
 xx yz   -4.958081712892959E-002
 xx zz     801.769856044865     
 xy xx    0.136707343752033     
 xy xy     12602.1927008662     
 xy xz   -0.105123599636241     
 xy yy   -4.401507429251257E-002
 xy yz     1.74789061604433     
 xy zz   -9.269226938021009E-002
 xz xx   -0.214476777625379     
 xz xy   -0.105155952470054     
 xz xz     1692.69235917138     
 xz yy   -1.642316114377952E-002
 xz yz    2.287698758903440E-002
 xz zz    0.230899938760490     
 yy xx    -4992.65448168237     
 yy xy    0.355423438590823     
 yy xz   -5.170440746393876E-002
 yy yy     9983.87866141778     
 yy yz   -0.181875786775046     
 yy zz    -4991.22417973548     
 yz xx   -4.987516572427930E-002
 yz xy     1.72209097649174     
 yz xz    2.304161287794557E-002
 yz yy    2.103463514488979E-002
 yz yz     12580.9017165119     
 yz zz    2.884053061382247E-002
 zz xx     801.781255244507     
 zz xy   -9.209363162278016E-002
 zz xz    0.237655344449226     
 zz yy    -4991.27352696566     
 zz yz    2.664938760461233E-002
 zz zz     4189.49227172113     
 
 Imaginary QUADRUPOLE-QUADRUPOLE Polarizability tensor:
 
 xx xx     18.7197351462462     
 xx xy    2.022348699793296E-003
 xx xz   -3.499486336293717E-003
 xx yy    -21.5588855723954     
 xx yz   -1.243263818375445E-003
 xx zz     2.83915042614903     
 xy xx    1.209133165089822E-003
 xy xy     125.099554581278     
 xy xz   -1.127268543215022E-003
 xy yy   -6.739805838555157E-004
 xy yz    2.335766221090943E-002
 xy zz   -5.351525811404257E-004
 xz xx   -3.349785298172337E-003
 xz xy   -1.253492875686774E-003
 xz xz     7.91944837545963     
 xz yy    1.661505677965089E-003
 xz yz    1.328476331591916E-004
 xz zz    1.688279620220474E-003
 yy xx    -21.5955308281792     
 yy xy    9.418547235872476E-002
 yy xz   -2.910712466759770E-004
 yy yy     43.1809192120608     
 yy yz   -4.840457362911194E-002
 yy zz    -21.5853883838817     
 yz xx   -8.147025820472026E-004
 yz xy    2.460043860630262E-002
 yz xz    1.576846605995194E-004
 yz yy    3.419621960959289E-004
 yz yz     124.847427563331     
 yz zz    4.727403861995009E-004
 zz xx     2.83787785899350     
 zz xy   -1.413572212931769E-003
 zz xz    1.738066119550848E-003
 zz yy    -21.5641185816150     
 zz yz    4.379570576579293E-003
 zz zz     18.7262407226215     



 =======================================================================
 Electrostatic potential at the Nuclei due to electrons and other nuclei
 =======================================================================
  
         Atom                  Potential
         ----                  ---------
     1)   C                  14.76919436
     2)   C                  14.76861146
     3)   C                  14.76865951
     4)   C                  14.76919547
     5)   C                  14.76860985
     6)   C                  14.76864698
     7)   H                   1.10093645
     8)   H                   1.10111329
     9)   H                   1.10184190
    10)   H                   1.10093605
    11)   H                   1.10110184
    12)   H                   1.10184209
 
 
 ========================
 No memory problems found
 ========================
 
 Maximum number of active allocate calls:        1279
 
 *******************************************************************************

                             A D F   E X I T
 NORMAL TERMINATION



 =================
 Timing Statistics
 =================
  
 Total Used :                     CPU=       41.34      System=        0.53     Elapsed=       42.92

 Calls  Section                     ( Mean, Percentage )
 ---------------------------------------------------------------------------------------------------
     3  ><      ................      0.00    0.01             0.00    0.01             0.00    0.01
     1  INIT    ................      0.55    1.33             0.01    1.34             0.57    1.32
     1  GEOMET  ................      0.04    0.10             0.01    1.48             0.05    0.12
     1  FRAGM   ................      0.02    0.05             0.02    2.98             0.04    0.09
     1  INPUTA  ................      0.00    0.01             0.00    0.00             0.00    0.01
     1  ATDEN   ................      0.00    0.01             0.00    0.00             0.00    0.01
     1  MAINSY  ................      0.03    0.06             0.01    1.46             0.03    0.08
     1  SYMFIT  ................      0.01    0.02             0.00    0.00             0.01    0.02
     1  CORORT  ................      0.00    0.00             0.00    0.02             0.00    0.00
     1  SYMORB  ................      0.00    0.01             0.00    0.01             0.00    0.01
     1  CLSMAT  ................      0.01    0.03             0.00    0.00             0.01    0.03
     1  ORTHON  ................      0.02    0.04             0.00    0.00             0.02    0.04
     1  GENPT   ................      0.12    0.28             0.01    1.52             0.13    0.30
     1  PTBAS   ................      0.09    0.21             0.00    0.05             0.09    0.20
    13  FOCKY   ................      0.28    8.84             0.00    6.10             0.29    8.93
    13  FOCKTR  ................      0.00    0.09             0.00    0.31             0.00    0.09
    13  SDIIS   ................      0.00    0.15             0.00    1.22             0.01    0.17
     1  COREPS  ................      0.21    0.51             0.00    0.74             0.24    0.55
     1  TOTEN   ................      0.95    2.29             0.01    2.32             1.04    2.41
     1  POPAN   ................      0.01    0.02             0.00    0.00             0.01    0.02
     1  DEBYE   ................      0.01    0.03             0.00    0.58             0.02    0.04
     1  INPUTE  ................      0.00    0.00             0.00    0.17             0.00    0.00
     1  SYMORE  ................      0.00    0.00             0.00    0.00             0.00    0.00
     1  METS    ................      0.00    0.00             0.00    0.00             0.00    0.00
     1  CETS    ................      0.01    0.03             0.00    0.00             0.01    0.02
     1  ELNRGY  ................      0.01    0.03             0.00    0.00             0.01    0.03
     1  POPUL   ................      0.01    0.02             0.00    0.75             0.03    0.07
     1  AORESPONSE .............     35.45   85.75             0.41   77.42            36.63   85.34
     1  EXIT PROCEDURE .........      0.02    0.06             0.01    1.50             0.03    0.08


 Currently Open Files (EXIT00)
 ====================

 Unit    Access Format  Status   Type       Ident (file)
 -------------------------------------------------------
   3      SEQ    FORM   TRANSP  NORMAL      LOGFILE
                                          ( logfile )

 ***************************************************************************************************
 (LOGFILE)
 <Sep29-2020> <15:24:27>  ADF 2019  RunTime: Sep29-2020 15:24:27  Nodes: 1  Procs: 1
 <Sep29-2020> <15:24:27>  Hydrogen (TZP)
 <Sep29-2020> <15:24:27>  RunType   : CREATE
 <Sep29-2020> <15:24:27>  Net Charge: 0 (Nuclei minus Electrons)
 <Sep29-2020> <15:24:27>  Symmetry  : ATOM
  Coordinates
    Atom         X           Y           Z   (Angstrom)
    1.H         0.000000    0.000000    0.000000
 <Sep29-2020> <15:24:27>  >>>> CORORT
 <Sep29-2020> <15:24:27>  >>>> CLSMAT
 <Sep29-2020> <15:24:27>  >>>> ORTHON
 <Sep29-2020> <15:24:27>  >>>> GENPT
 <Sep29-2020> <15:24:27>  Block Length=  64
 <Sep29-2020> <15:24:27>  >>>> PTBAS
 <Sep29-2020> <15:24:27>  >>>> CYCLE
 <Sep29-2020> <15:24:27>              |Error|         MaxErr       Wt(A-DIIS)
 <Sep29-2020> <15:24:27>      1      0.00000000      0.00000000
 <Sep29-2020> <15:24:27>      2      0.03052909      0.02968459
 <Sep29-2020> <15:24:27>      3      0.00718138      0.00670742    100.0
 <Sep29-2020> <15:24:27>      4      0.00117303      0.00114116      0.1
 <Sep29-2020> <15:24:27>      5      0.00002783      0.00002380      0.0
 <Sep29-2020> <15:24:27>      6      0.00000153      0.00000130      0.0
 <Sep29-2020> <15:24:27>      7      0.00000000      0.00000000      0.0
 <Sep29-2020> <15:24:27>  SCF converged
 <Sep29-2020> <15:24:27>      8      0.00000000      0.00000000      0.0
 <Sep29-2020> <15:24:27>  >>>> POPAN
 <Sep29-2020> <15:24:27>  >>>> DEBYE
 <Sep29-2020> <15:24:27>  NORMAL TERMINATION
 <Sep29-2020> <15:24:27>  END
 <Sep29-2020> <15:24:28>  ADF 2019  RunTime: Sep29-2020 15:24:28  Nodes: 1  Procs: 1
 <Sep29-2020> <15:24:28>  Carbon (TZP)
 <Sep29-2020> <15:24:28>  RunType   : CREATE
 <Sep29-2020> <15:24:28>  Net Charge: 0 (Nuclei minus Electrons)
 <Sep29-2020> <15:24:28>  Symmetry  : ATOM
  Coordinates
    Atom         X           Y           Z   (Angstrom)
    1.C         0.000000    0.000000    0.000000
 <Sep29-2020> <15:24:28>  >>>> CORORT
 <Sep29-2020> <15:24:28>  >>>> CLSMAT
 <Sep29-2020> <15:24:28>  >>>> ORTHON
 <Sep29-2020> <15:24:28>  >>>> GENPT
 <Sep29-2020> <15:24:28>  Block Length=  72
 <Sep29-2020> <15:24:28>  >>>> PTBAS
 <Sep29-2020> <15:24:28>  >>>> CYCLE
 <Sep29-2020> <15:24:28>              |Error|         MaxErr       Wt(A-DIIS)
 <Sep29-2020> <15:24:28>      1      0.00000000      0.00000000
 <Sep29-2020> <15:24:28>      2      4.48324754      3.31969244    100.0
 <Sep29-2020> <15:24:28>      3      1.61537707      1.30410194    100.0
 <Sep29-2020> <15:24:28>      4      0.72706284      0.59053131    100.0
 <Sep29-2020> <15:24:28>      5      0.40898688      0.33263800    100.0
 <Sep29-2020> <15:24:28>      6      0.13548919      0.10594416    100.0
 <Sep29-2020> <15:24:28>      7      0.11406432      0.09088019     90.8
 <Sep29-2020> <15:24:28>      8      0.01170325      0.00926551      8.3
 <Sep29-2020> <15:24:28>      9      0.00078015      0.00061791      0.0
 <Sep29-2020> <15:24:28>     10      0.00000178      0.00000107      0.0
 <Sep29-2020> <15:24:28>     11      0.00000024      0.00000019      0.0
 <Sep29-2020> <15:24:28>     12      0.00000000      0.00000000      0.0
 <Sep29-2020> <15:24:28>  SCF converged
 <Sep29-2020> <15:24:28>     13      0.00000000      0.00000000      0.0
 <Sep29-2020> <15:24:28>  >>>> POPAN
 <Sep29-2020> <15:24:28>  >>>> DEBYE
 <Sep29-2020> <15:24:28>  NORMAL TERMINATION
 <Sep29-2020> <15:24:28>  END
 <Sep29-2020> <15:24:29>  ADF 2019  RunTime: Sep29-2020 15:24:29  Nodes: 1  Procs: 6
 <Sep29-2020> <15:24:29>  None
 <Sep29-2020> <15:24:29>  RunType   : SINGLE POINT
 <Sep29-2020> <15:24:29>  Net Charge: 0 (Nuclei minus Electrons)
 <Sep29-2020> <15:24:29>  Symmetry  : NOSYM
 <Sep29-2020> <15:24:29>  >>>> FRAGM
  Coordinates
    Atom         X           Y           Z   (Angstrom)
    1.C         0.029996    4.000000   -1.397807
    2.C        -1.196746    4.000000   -0.726717
    3.C        -1.226140    4.000000    0.675281
    4.C        -0.029996    4.000000    1.397807
    5.C         1.196746    4.000000    0.726717
    6.C         1.226140    4.000000   -0.675281
    7.H        -2.131454    4.000000   -1.290358
    8.H        -2.184358    4.000000    1.198129
    9.H        -0.052588    4.000000    2.489249
   10.H         2.131454    4.000000    1.290363
   11.H         2.184458    4.000000   -1.198129
   12.H         0.052488    4.000000   -2.489249
 <Sep29-2020> <15:24:29>  >>>> CORORT
 <Sep29-2020> <15:24:29>  >>>> CLSMAT
 <Sep29-2020> <15:24:29>  >>>> ORTHON
 <Sep29-2020> <15:24:29>  >>>> GENPT
 <Sep29-2020> <15:24:30>  Block Length= 128
 <Sep29-2020> <15:24:30>  >>>> PTBAS
 <Sep29-2020> <15:24:30>  >>>> CYCLE
 <Sep29-2020> <15:24:30>              |Error|         MaxErr       Wt(A-DIIS)
 <Sep29-2020> <15:24:30>      1      5.99096499      0.98118022
 <Sep29-2020> <15:24:30>      2      0.89236468      0.18783570    100.0
 <Sep29-2020> <15:24:31>      3      0.52146409      0.10285854    100.0
 <Sep29-2020> <15:24:31>      4      0.74329400      0.17322551    100.0
 <Sep29-2020> <15:24:31>      5      0.07623620      0.01066459      9.8
 <Sep29-2020> <15:24:32>      6      0.01072138      0.00173647      0.7
 <Sep29-2020> <15:24:32>      7      0.00158843      0.00036168      0.0
 <Sep29-2020> <15:24:32>      8      0.00118506      0.00028587      0.0
 <Sep29-2020> <15:24:32>      9      0.00005076      0.00001106      0.0
 <Sep29-2020> <15:24:33>     10      0.00000837      0.00000228      0.0
 <Sep29-2020> <15:24:33>     11      0.00000787      0.00000200      0.0
 <Sep29-2020> <15:24:33>     12      0.00000088      0.00000024      0.0
 <Sep29-2020> <15:24:33>  SCF converged
 <Sep29-2020> <15:24:34>     13      0.00000030      0.00000008      0.0
 <Sep29-2020> <15:24:34>  >>>> TOTEN
 <Sep29-2020> <15:24:35>  >>>> POPAN
 <Sep29-2020> <15:24:35>  >>>> DEBYE
 <Sep29-2020> <15:24:35>  >>>> AMETS
 <Sep29-2020> <15:24:35>  >>>> POPUL
 <Sep29-2020> <15:24:35>     1 V(1)  0.1849988E+04
 <Sep29-2020> <15:24:36>     2 V(1)  0.1579748E+04
 <Sep29-2020> <15:24:36>     3 V(1)  0.1562315E+04
 <Sep29-2020> <15:24:37>     4 V(1)  0.1568801E+04
 <Sep29-2020> <15:24:37>     5 V(1)  0.1570601E+04
 <Sep29-2020> <15:24:37>     6 V(1)  0.1570719E+04
 <Sep29-2020> <15:24:38>     7 V(1)  0.1570660E+04
 <Sep29-2020> <15:24:38>     8 V(1)  0.1570587E+04
 <Sep29-2020> <15:24:38>     9 V(1)  0.1570584E+04
 <Sep29-2020> <15:24:39>    10 V(1)  0.1570581E+04
 <Sep29-2020> <15:24:39>    11 V(1)  0.1570580E+04
 <Sep29-2020> <15:24:39>   convergence reached
 <Sep29-2020> <15:24:40>     1 V(1)  0.2536250E+02
 <Sep29-2020> <15:24:40>     2 V(1)  0.2328924E+02
 <Sep29-2020> <15:24:40>     3 V(1)  0.2328390E+02
 <Sep29-2020> <15:24:41>     4 V(1)  0.2328316E+02
 <Sep29-2020> <15:24:41>     5 V(1)  0.2328304E+02
 <Sep29-2020> <15:24:42>     6 V(1)  0.2328307E+02
 <Sep29-2020> <15:24:42>     7 V(1)  0.2328307E+02
 <Sep29-2020> <15:24:42>   convergence reached
 <Sep29-2020> <15:24:42>     1 V(1)  0.1838287E+04
 <Sep29-2020> <15:24:43>     2 V(1)  0.1569227E+04
 <Sep29-2020> <15:24:43>     3 V(1)  0.1551812E+04
 <Sep29-2020> <15:24:44>     4 V(1)  0.1558228E+04
 <Sep29-2020> <15:24:44>     5 V(1)  0.1559268E+04
 <Sep29-2020> <15:24:44>     6 V(1)  0.1560296E+04
 <Sep29-2020> <15:24:45>     7 V(1)  0.1560258E+04
 <Sep29-2020> <15:24:45>     8 V(1)  0.1560182E+04
 <Sep29-2020> <15:24:45>     9 V(1)  0.1560164E+04
 <Sep29-2020> <15:24:46>    10 V(1)  0.1560162E+04
 <Sep29-2020> <15:24:46>   convergence reached
 <Sep29-2020> <15:24:46>     1 V(1)  0.1299934E+04
 <Sep29-2020> <15:24:47>     2 V(1)  0.1072424E+04
 <Sep29-2020> <15:24:47>     3 V(1)  0.1107859E+04
 <Sep29-2020> <15:24:48>     4 V(1)  0.1113369E+04
 <Sep29-2020> <15:24:48>     5 V(1)  0.1114251E+04
 <Sep29-2020> <15:24:49>     6 V(1)  0.1114350E+04
 <Sep29-2020> <15:24:49>     7 V(1)  0.1114352E+04
 <Sep29-2020> <15:24:49>     8 V(1)  0.1114349E+04
 <Sep29-2020> <15:24:50>     9 V(1)  0.1114347E+04
 <Sep29-2020> <15:24:50>    10 V(1)  0.1114347E+04
 <Sep29-2020> <15:24:50>   convergence reached
 <Sep29-2020> <15:24:51>     1 V(1)  0.1061295E+06
 <Sep29-2020> <15:24:51>     2 V(1)  0.8997200E+05
 <Sep29-2020> <15:24:52>     3 V(1)  0.8906949E+05
 <Sep29-2020> <15:24:52>     4 V(1)  0.8969445E+05
 <Sep29-2020> <15:24:53>     5 V(1)  0.8980526E+05
 <Sep29-2020> <15:24:53>     6 V(1)  0.8981100E+05
 <Sep29-2020> <15:24:54>     7 V(1)  0.8980680E+05
 <Sep29-2020> <15:24:54>     8 V(1)  0.8980250E+05
 <Sep29-2020> <15:24:55>     9 V(1)  0.8980226E+05
 <Sep29-2020> <15:24:55>    10 V(1)  0.8980204E+05
 <Sep29-2020> <15:24:55>    11 V(1)  0.8980200E+05
 <Sep29-2020> <15:24:55>   convergence reached
 <Sep29-2020> <15:24:56>     1 V(1)  0.6189331E+03
 <Sep29-2020> <15:24:56>     2 V(1)  0.4725126E+03
 <Sep29-2020> <15:24:57>     3 V(1)  0.4866695E+03
 <Sep29-2020> <15:24:57>     4 V(1)  0.4878379E+03
 <Sep29-2020> <15:24:57>     5 V(1)  0.4883724E+03
 <Sep29-2020> <15:24:58>     6 V(1)  0.4883797E+03
 <Sep29-2020> <15:24:58>     7 V(1)  0.4883812E+03
 <Sep29-2020> <15:24:59>     8 V(1)  0.4883799E+03
 <Sep29-2020> <15:24:59>     9 V(1)  0.4883789E+03
 <Sep29-2020> <15:24:59>    10 V(1)  0.4883787E+03
 <Sep29-2020> <15:24:59>   convergence reached
 <Sep29-2020> <15:25:00>     1 V(1)  0.2748765E+04
 <Sep29-2020> <15:25:00>     2 V(1)  0.2507423E+04
 <Sep29-2020> <15:25:01>     3 V(1)  0.2520162E+04
 <Sep29-2020> <15:25:01>     4 V(1)  0.2520587E+04
 <Sep29-2020> <15:25:02>     5 V(1)  0.2520587E+04
 <Sep29-2020> <15:25:02>   convergence reached
 <Sep29-2020> <15:25:02>     1 V(1)  0.1054564E+06
 <Sep29-2020> <15:25:03>     2 V(1)  0.8937673E+05
 <Sep29-2020> <15:25:03>     3 V(1)  0.8847445E+05
 <Sep29-2020> <15:25:03>     4 V(1)  0.8908919E+05
 <Sep29-2020> <15:25:04>     5 V(1)  0.8915500E+05
 <Sep29-2020> <15:25:04>     6 V(1)  0.8921523E+05
 <Sep29-2020> <15:25:05>     7 V(1)  0.8921248E+05
 <Sep29-2020> <15:25:05>     8 V(1)  0.8920766E+05
 <Sep29-2020> <15:25:06>     9 V(1)  0.8920667E+05
 <Sep29-2020> <15:25:06>    10 V(1)  0.8920652E+05
 <Sep29-2020> <15:25:07>    11 V(1)  0.8920641E+05
 <Sep29-2020> <15:25:07>    12 V(1)  0.8920645E+05
 <Sep29-2020> <15:25:07>   convergence reached
 <Sep29-2020> <15:25:08>     1 V(1)  0.1297524E+04
 <Sep29-2020> <15:25:08>     2 V(1)  0.1070680E+04
 <Sep29-2020> <15:25:08>     3 V(1)  0.1106131E+04
 <Sep29-2020> <15:25:09>     4 V(1)  0.1111633E+04
 <Sep29-2020> <15:25:09>     5 V(1)  0.1112524E+04
 <Sep29-2020> <15:25:10>     6 V(1)  0.1112626E+04
 <Sep29-2020> <15:25:10>     7 V(1)  0.1112624E+04
 <Sep29-2020> <15:25:11>     8 V(1)  0.1112622E+04
 <Sep29-2020> <15:25:11>     9 V(1)  0.1112620E+04
 <Sep29-2020> <15:25:12>    10 V(1)  0.1112620E+04
 <Sep29-2020> <15:25:12>   convergence reached
 <Sep29-2020> <15:25:12>  NORMAL TERMINATION
 <Sep29-2020> <15:25:12>  END
