

 Parallel Execution: Process Information
 ==============================================================================
 Rank   Node Name                              NodeID   MyNodeRank  NodeMaster
    0   magnesium.science.psu.edu                 0          0          0
    1   magnesium.science.psu.edu                 0          1         -1
    2   magnesium.science.psu.edu                 0          2         -1
    3   magnesium.science.psu.edu                 0          3         -1
    4   magnesium.science.psu.edu                 0          4         -1
    5   magnesium.science.psu.edu                 0          5         -1
 ==============================================================================


May use up to 7495MB of RAM as shared memory on node 0
 
TITLE None

ATOMS
1  C     0.03051459    4.00000000   -1.39861058
2  C    -1.19578869    4.00000000   -0.72409927
3  C    -1.22792718    4.00000000    0.67485313
4  C    -0.03051459    4.00000000    1.39861058
5  C     1.19578869    4.00000000    0.72409927
6  C     1.22792718    4.00000000   -0.67485313
7  H    -2.12837560    4.00000000   -1.29114560
8  H    -2.18482440    4.00000000    1.20003803
9  H    -0.05178869    4.00000000    2.49015290
10 H     2.12837560    4.00000000    1.29114560
11 H     2.18492440    4.00000000   -1.20003803
12 H     0.05169398    4.00000000   -2.49015290
END

XC
 gga BP86
end

symmetry nosym

aoresponse
 alda
 frequency 1 3.6 eV
 lifetime 0.0037
 El_Dipole_El_Dipole
 El_Dipole_El_Quadrupole
 El_Quadrupole_El_Quadrupole
 Traceless
end

Fragments
H t21.H
C t21.C
End

 *******************************************************************************
 *                                                                             *
 *  -------------------------------------                                      *
 *   Amsterdam Density Functional  (ADF)         2019                          *
 *  -------------------------------------                                      *
 *                                               r75281 2019-06-03             *
 *                                                                             *
 *                                                                             *
 *                              =================                              *
 *                              |               |                              *
 *                              |     A D F     |                              *
 *                              |               |                              *
 *                              =================                              *
 *                                                                             *
 *                                                                             *
 *   Online information and documentation:  https://www.scm.com/support/       *
 *   E-mail:  support@scm.com   info@scm.com                                   *
 *                                                                             *
 *   Scientific publications using ADF results must be properly referenced     *
 *   See the User Manuals (or the web site) for recommended citations          *
 *   The terms and conditions of the End User License Agreement apply to       *
 *   the use of ADF, https://www.scm.com/license-terms/                        *
 *                                                                             *
 **********************  x86_64_linux_intel / intelmpi  ************************
 
 Licensed to: Prof. Lasse Jensen / Penn State University / University Park / PA  / USA
 SCM User ID: u8493
  
 ADF 2019  RunTime: Sep29-2020 15:28:10  Nodes: 1  Procs: 6

 Temporary files are created in /scratch/kid_0.902559445


Communication costs MPI_COMM_WORLD:      0.600 usec per message,   0.0073 usec per 8-byte item
Communication costs for intra-node:      0.627 usec per message,   0.0069 usec per 8-byte item

 None



 ===========================
 A T T A C H E D   F I L E S
 ===========================
  



 ===============================
 M O D E L   P A R A M E T E R S
 ===============================
  
 DENSITY FUNCTIONAL POTENTIAL (scf)
    LDA:                               VWN                                      
    Gradient Corrections:              Becke88 Perdew86                        == Not Default ==

 SPIN  (restricted / unrestr.)
    Molecule:                          Restricted                               
    Fragments:                         Restricted                               

 OTHER ASPECTS
    Relativistic Corrections:          ---                                      

    Nuclear Charge Density Model:      Point Charge Nuclei                      
    Core Treatment:                    Frozen Orbital(s)                        

    Hyperfine or Zeeman Interaction:   ---                                      


 Fragment File(s)
 ----------------
 C:
         file : t21.C
         jobid: ADF 2019  RunTime: Sep29-2020 15:28:09  Nodes: 1  Procs: 1
         title: Carbon (TZP)
 H:
         file : t21.H
         jobid: ADF 2019  RunTime: Sep29-2020 15:28:08  Nodes: 1  Procs: 1
         title: Hydrogen (TZP)



                                        ************************************
                                        *  R U N   T Y P E : SINGLE POINT  *
                                        ************************************
  



 ===============
 G E O M E T R Y  ***  Planar Molecule  ***
 ===============
  

 ATOMS
 =====                            X Y Z                    CHARGE
                                (Angstrom)             Nucl     +Core       At.Mass
                       --------------------------    ----------------       -------
    1  C               0.0305    4.0000   -1.3986      6.00      6.00       12.0000
    2  C              -1.1958    4.0000   -0.7241      6.00      6.00       12.0000
    3  C              -1.2279    4.0000    0.6749      6.00      6.00       12.0000
    4  C              -0.0305    4.0000    1.3986      6.00      6.00       12.0000
    5  C               1.1958    4.0000    0.7241      6.00      6.00       12.0000
    6  C               1.2279    4.0000   -0.6749      6.00      6.00       12.0000
    7  H              -2.1284    4.0000   -1.2911      1.00      1.00        1.0078
    8  H              -2.1848    4.0000    1.2000      1.00      1.00        1.0078
    9  H              -0.0518    4.0000    2.4902      1.00      1.00        1.0078
   10  H               2.1284    4.0000    1.2911      1.00      1.00        1.0078
   11  H               2.1849    4.0000   -1.2000      1.00      1.00        1.0078
   12  H               0.0517    4.0000   -2.4902      1.00      1.00        1.0078


 FRAGMENTS
 =========                                     Atoms in this Fragment     Cart. coord.s (Angstrom)
                                               -------------------------------------------------------
    1  C                                                 1  C            0.0305    4.0000   -1.3986
    2  C                                                 2  C           -1.1958    4.0000   -0.7241
    3  C                                                 3  C           -1.2279    4.0000    0.6749
    4  C                                                 4  C           -0.0305    4.0000    1.3986
    5  C                                                 5  C            1.1958    4.0000    0.7241
    6  C                                                 6  C            1.2279    4.0000   -0.6749
    7  H                                                 7  H           -2.1284    4.0000   -1.2911
    8  H                                                 8  H           -2.1848    4.0000    1.2000
    9  H                                                 9  H           -0.0518    4.0000    2.4902
   10  H                                                10  H            2.1284    4.0000    1.2911
   11  H                                                11  H            2.1849    4.0000   -1.2000
   12  H                                                12  H            0.0517    4.0000   -2.4902


 Interatomic Distance Matrix (Angstrom)
 --------------------------------------

   1)     0.000
   2)     1.400   0.000
   3)     2.425   1.399   0.000
   4)     2.798   2.422   1.399   0.000
   5)     2.422   2.796   2.424   1.400   0.000
   6)     1.399   2.424   2.802   2.425   1.399   0.000
   7)     2.162   1.091   2.162   3.411   3.887   3.412   0.000
   8)     3.415   2.163   1.092   2.163   3.414   3.894   2.492   0.000
   9)     3.890   3.412   2.163   1.092   2.162   3.414   4.314   2.493   0.000
  10)     3.411   3.887   3.412   2.162   1.091   2.162   4.979   4.314   2.488   0.000
  11)     2.164   3.414   3.894   3.415   2.163   1.092   4.314   4.985   4.315   2.492
          0.000
  12)     1.092   2.162   3.414   3.890   3.412   2.163   2.488   4.315   4.981   4.314
          2.493   0.000

 Min. Distance =    1.0914
 Max. Distance =    4.9855



 =====================================
 S Y M M E T R Y ,   E L E C T R O N S
 =====================================
  
 Symmetry: NOSYM

 Irreducible Representations, including subspecies
 -------------------------------------------------
 A


 Configuration of Valence Electrons
 ==================================
 ( determined in the SCF procedure )

 Total:   42

 Net Charge: 0 (Nuclei minus Electrons)

 Aufbau principle for MO occupations will be applied through SCF cycle no.     150
 Thereafter, the program will assign electrons to MOs that are spatially
 similar to the occupied MOs in a "reference" cycle ("KeepOrbitals").
 The reference cycle is always the PREVIOUS cycle: it will evolve with
 the SCF procedure.
1
 ***************************************************************************************************



                                      ****************************************
                                      *  B U I L D : (Fragments, Functions)  *
                                      ****************************************
  



 =======
 S F O s  ***  (Symmetrized Fragment Orbitals)  ***
 =======
  
 SFOs are linear combinations of (valence) Fragment Orbitals (FOs), such that the SFOs transform as the
 irreducible representations of the (molecular) symmetry group. Each SFO is therefore characterized by
 an irrep of the molecule and by a few (or only one) generating FOs.
 The SFOs constitute a symmetry-adapted basis for the Fock matrix. The MO eigenvector coefficients in
 this basis provide a direct interpretation of the MOs in terms of Frontier Orbital Theory.

 The SFOs are combined with auxiliary Core Functions (CFs) to ensure orthogonalization on the (frozen)
 Core Orbitals (COs). The Core-orthogonalized SFOs (CSFOs) constitute the true Fock basis.

 The FOs, and hence also the (C)SFOs are combinations of the elementary basis functions (BAS). The basis
 functions that participate in the description of the SFOs depend on the irrep. The indices of the
 involved functions are printed below for each irrep.
 (The complete list of primitive basis functions is printed in another section)

 Total nr. of (C)SFOs (summation over all irreps) :   150

 NOTE: a (C)SFO that is defined as a combination of more than one FO is usually NOT normalized.



                                       === A ===
 Nr. of SFOs :  150
 Cartesian basis functions that participate in this irrep (total number =   156) :
      1     2     3     4     5     6     9    12     7    10
     13     8    11    14    15    16    17    18    19    20
     21    22    23    24    25    26    29    32    27    30
     33    28    31    34    35    36    37    38    39    40
     41    42    43    44    45    46    49    52    47    50
     53    48    51    54    55    56    57    58    59    60
     61    62    63    64    65    66    69    72    67    70
     73    68    71    74    75    76    77    78    79    80
     81    82    83    84    85    86    89    92    87    90
     93    88    91    94    95    96    97    98    99   100
    101   102   103   104   105   106   109   112   107   110
    113   108   111   114   115   116   117   118   119   120
    121   122   123   124   125   126   127   128   129   130
    131   132   133   134   135   136   137   138   139   140
    141   142   143   144   145   146   147   148   149   150
    151   152   153   154   155   156

    SFO  (index         Fragment          Generating    Expansion in Fragment Orbitals
  indx  incl.CFs)   Occup   Orb.Energy   FragmentType  Coeff.   Orbital     on Fragment
 --------------------------------------------------------------------------------------
     1       1      2.000     -10.058 au  C             1.00      1 S               1
                        (    -273.681 eV)
     2       2      2.000      -0.510 au  C             1.00      2 S               1
                        (     -13.876 eV)
     3       3       --         0.371 au  C             1.00      3 S               1
                        (      10.091 eV)
     4       4       --         5.428 au  C             1.00      4 S               1
                        (     147.707 eV)
     5       5       --        50.181 au  C             1.00      5 S               1
                        (    1365.486 eV)
     6       6      0.667      -0.199 au  C             1.00      1 P:x             1
                        (      -5.403 eV)
     7       7       --         0.173 au  C             1.00      2 P:x             1
                        (       4.709 eV)
     8       8       --         2.026 au  C             1.00      3 P:x             1
                        (      55.143 eV)
     9       9      0.667      -0.199 au  C             1.00      1 P:y             1
                        (      -5.403 eV)
    10      10       --         0.173 au  C             1.00      2 P:y             1
                        (       4.709 eV)
    11      11       --         2.026 au  C             1.00      3 P:y             1
                        (      55.143 eV)
    12      12      0.667      -0.199 au  C             1.00      1 P:z             1
                        (      -5.403 eV)
    13      13       --         0.173 au  C             1.00      2 P:z             1
                        (       4.709 eV)
    14      14       --         2.026 au  C             1.00      3 P:z             1
                        (      55.143 eV)
    15      15       --         1.232 au  C             1.00      1 D:z2            1
                        (      33.528 eV)
    16      16       --         1.232 au  C             1.00      1 D:x2-y2         1
                        (      33.528 eV)
    17      17       --         1.232 au  C             1.00      1 D:xy            1
                        (      33.528 eV)
    18      18       --         1.232 au  C             1.00      1 D:xz            1
                        (      33.528 eV)
    19      19       --         1.232 au  C             1.00      1 D:yz            1
                        (      33.528 eV)
    20      20      2.000     -10.058 au  C             1.00      1 S               2
                        (    -273.681 eV)
    21      21      2.000      -0.510 au  C             1.00      2 S               2
                        (     -13.876 eV)
    22      22       --         0.371 au  C             1.00      3 S               2
                        (      10.091 eV)
    23      23       --         5.428 au  C             1.00      4 S               2
                        (     147.707 eV)
    24      24       --        50.181 au  C             1.00      5 S               2
                        (    1365.486 eV)
    25      25      0.667      -0.199 au  C             1.00      1 P:x             2
                        (      -5.403 eV)
    26      26       --         0.173 au  C             1.00      2 P:x             2
                        (       4.709 eV)
    27      27       --         2.026 au  C             1.00      3 P:x             2
                        (      55.143 eV)
    28      28      0.667      -0.199 au  C             1.00      1 P:y             2
                        (      -5.403 eV)
    29      29       --         0.173 au  C             1.00      2 P:y             2
                        (       4.709 eV)
    30      30       --         2.026 au  C             1.00      3 P:y             2
                        (      55.143 eV)
    31      31      0.667      -0.199 au  C             1.00      1 P:z             2
                        (      -5.403 eV)
    32      32       --         0.173 au  C             1.00      2 P:z             2
                        (       4.709 eV)
    33      33       --         2.026 au  C             1.00      3 P:z             2
                        (      55.143 eV)
    34      34       --         1.232 au  C             1.00      1 D:z2            2
                        (      33.528 eV)
    35      35       --         1.232 au  C             1.00      1 D:x2-y2         2
                        (      33.528 eV)
    36      36       --         1.232 au  C             1.00      1 D:xy            2
                        (      33.528 eV)
    37      37       --         1.232 au  C             1.00      1 D:xz            2
                        (      33.528 eV)
    38      38       --         1.232 au  C             1.00      1 D:yz            2
                        (      33.528 eV)
    39      39      2.000     -10.058 au  C             1.00      1 S               3
                        (    -273.681 eV)
    40      40      2.000      -0.510 au  C             1.00      2 S               3
                        (     -13.876 eV)
    41      41       --         0.371 au  C             1.00      3 S               3
                        (      10.091 eV)
    42      42       --         5.428 au  C             1.00      4 S               3
                        (     147.707 eV)
    43      43       --        50.181 au  C             1.00      5 S               3
                        (    1365.486 eV)
    44      44      0.667      -0.199 au  C             1.00      1 P:x             3
                        (      -5.403 eV)
    45      45       --         0.173 au  C             1.00      2 P:x             3
                        (       4.709 eV)
    46      46       --         2.026 au  C             1.00      3 P:x             3
                        (      55.143 eV)
    47      47      0.667      -0.199 au  C             1.00      1 P:y             3
                        (      -5.403 eV)
    48      48       --         0.173 au  C             1.00      2 P:y             3
                        (       4.709 eV)
    49      49       --         2.026 au  C             1.00      3 P:y             3
                        (      55.143 eV)
    50      50      0.667      -0.199 au  C             1.00      1 P:z             3
                        (      -5.403 eV)
    51      51       --         0.173 au  C             1.00      2 P:z             3
                        (       4.709 eV)
    52      52       --         2.026 au  C             1.00      3 P:z             3
                        (      55.143 eV)
    53      53       --         1.232 au  C             1.00      1 D:z2            3
                        (      33.528 eV)
    54      54       --         1.232 au  C             1.00      1 D:x2-y2         3
                        (      33.528 eV)
    55      55       --         1.232 au  C             1.00      1 D:xy            3
                        (      33.528 eV)
    56      56       --         1.232 au  C             1.00      1 D:xz            3
                        (      33.528 eV)
    57      57       --         1.232 au  C             1.00      1 D:yz            3
                        (      33.528 eV)
    58      58      2.000     -10.058 au  C             1.00      1 S               4
                        (    -273.681 eV)
    59      59      2.000      -0.510 au  C             1.00      2 S               4
                        (     -13.876 eV)
    60      60       --         0.371 au  C             1.00      3 S               4
                        (      10.091 eV)
    61      61       --         5.428 au  C             1.00      4 S               4
                        (     147.707 eV)
    62      62       --        50.181 au  C             1.00      5 S               4
                        (    1365.486 eV)
    63      63      0.667      -0.199 au  C             1.00      1 P:x             4
                        (      -5.403 eV)
    64      64       --         0.173 au  C             1.00      2 P:x             4
                        (       4.709 eV)
    65      65       --         2.026 au  C             1.00      3 P:x             4
                        (      55.143 eV)
    66      66      0.667      -0.199 au  C             1.00      1 P:y             4
                        (      -5.403 eV)
    67      67       --         0.173 au  C             1.00      2 P:y             4
                        (       4.709 eV)
    68      68       --         2.026 au  C             1.00      3 P:y             4
                        (      55.143 eV)
    69      69      0.667      -0.199 au  C             1.00      1 P:z             4
                        (      -5.403 eV)
    70      70       --         0.173 au  C             1.00      2 P:z             4
                        (       4.709 eV)
    71      71       --         2.026 au  C             1.00      3 P:z             4
                        (      55.143 eV)
    72      72       --         1.232 au  C             1.00      1 D:z2            4
                        (      33.528 eV)
    73      73       --         1.232 au  C             1.00      1 D:x2-y2         4
                        (      33.528 eV)
    74      74       --         1.232 au  C             1.00      1 D:xy            4
                        (      33.528 eV)
    75      75       --         1.232 au  C             1.00      1 D:xz            4
                        (      33.528 eV)
    76      76       --         1.232 au  C             1.00      1 D:yz            4
                        (      33.528 eV)
    77      77      2.000     -10.058 au  C             1.00      1 S               5
                        (    -273.681 eV)
    78      78      2.000      -0.510 au  C             1.00      2 S               5
                        (     -13.876 eV)
    79      79       --         0.371 au  C             1.00      3 S               5
                        (      10.091 eV)
    80      80       --         5.428 au  C             1.00      4 S               5
                        (     147.707 eV)
    81      81       --        50.181 au  C             1.00      5 S               5
                        (    1365.486 eV)
    82      82      0.667      -0.199 au  C             1.00      1 P:x             5
                        (      -5.403 eV)
    83      83       --         0.173 au  C             1.00      2 P:x             5
                        (       4.709 eV)
    84      84       --         2.026 au  C             1.00      3 P:x             5
                        (      55.143 eV)
    85      85      0.667      -0.199 au  C             1.00      1 P:y             5
                        (      -5.403 eV)
    86      86       --         0.173 au  C             1.00      2 P:y             5
                        (       4.709 eV)
    87      87       --         2.026 au  C             1.00      3 P:y             5
                        (      55.143 eV)
    88      88      0.667      -0.199 au  C             1.00      1 P:z             5
                        (      -5.403 eV)
    89      89       --         0.173 au  C             1.00      2 P:z             5
                        (       4.709 eV)
    90      90       --         2.026 au  C             1.00      3 P:z             5
                        (      55.143 eV)
    91      91       --         1.232 au  C             1.00      1 D:z2            5
                        (      33.528 eV)
    92      92       --         1.232 au  C             1.00      1 D:x2-y2         5
                        (      33.528 eV)
    93      93       --         1.232 au  C             1.00      1 D:xy            5
                        (      33.528 eV)
    94      94       --         1.232 au  C             1.00      1 D:xz            5
                        (      33.528 eV)
    95      95       --         1.232 au  C             1.00      1 D:yz            5
                        (      33.528 eV)
    96      96      2.000     -10.058 au  C             1.00      1 S               6
                        (    -273.681 eV)
    97      97      2.000      -0.510 au  C             1.00      2 S               6
                        (     -13.876 eV)
    98      98       --         0.371 au  C             1.00      3 S               6
                        (      10.091 eV)
    99      99       --         5.428 au  C             1.00      4 S               6
                        (     147.707 eV)
   100     100       --        50.181 au  C             1.00      5 S               6
                        (    1365.486 eV)
   101     101      0.667      -0.199 au  C             1.00      1 P:x             6
                        (      -5.403 eV)
   102     102       --         0.173 au  C             1.00      2 P:x             6
                        (       4.709 eV)
   103     103       --         2.026 au  C             1.00      3 P:x             6
                        (      55.143 eV)
   104     104      0.667      -0.199 au  C             1.00      1 P:y             6
                        (      -5.403 eV)
   105     105       --         0.173 au  C             1.00      2 P:y             6
                        (       4.709 eV)
   106     106       --         2.026 au  C             1.00      3 P:y             6
                        (      55.143 eV)
   107     107      0.667      -0.199 au  C             1.00      1 P:z             6
                        (      -5.403 eV)
   108     108       --         0.173 au  C             1.00      2 P:z             6
                        (       4.709 eV)
   109     109       --         2.026 au  C             1.00      3 P:z             6
                        (      55.143 eV)
   110     110       --         1.232 au  C             1.00      1 D:z2            6
                        (      33.528 eV)
   111     111       --         1.232 au  C             1.00      1 D:x2-y2         6
                        (      33.528 eV)
   112     112       --         1.232 au  C             1.00      1 D:xy            6
                        (      33.528 eV)
   113     113       --         1.232 au  C             1.00      1 D:xz            6
                        (      33.528 eV)
   114     114       --         1.232 au  C             1.00      1 D:yz            6
                        (      33.528 eV)
   115     115      1.000      -0.244 au  H             1.00      1 S               7
                        (      -6.626 eV)
   116     116       --         0.093 au  H             1.00      2 S               7
                        (       2.536 eV)
   117     117       --         1.515 au  H             1.00      3 S               7
                        (      41.236 eV)
   118     118       --         0.400 au  H             1.00      1 P:x             7
                        (      10.872 eV)
   119     119       --         0.400 au  H             1.00      1 P:y             7
                        (      10.872 eV)
   120     120       --         0.400 au  H             1.00      1 P:z             7
                        (      10.872 eV)
   121     121      1.000      -0.244 au  H             1.00      1 S               8
                        (      -6.626 eV)
   122     122       --         0.093 au  H             1.00      2 S               8
                        (       2.536 eV)
   123     123       --         1.515 au  H             1.00      3 S               8
                        (      41.236 eV)
   124     124       --         0.400 au  H             1.00      1 P:x             8
                        (      10.872 eV)
   125     125       --         0.400 au  H             1.00      1 P:y             8
                        (      10.872 eV)
   126     126       --         0.400 au  H             1.00      1 P:z             8
                        (      10.872 eV)
   127     127      1.000      -0.244 au  H             1.00      1 S               9
                        (      -6.626 eV)
   128     128       --         0.093 au  H             1.00      2 S               9
                        (       2.536 eV)
   129     129       --         1.515 au  H             1.00      3 S               9
                        (      41.236 eV)
   130     130       --         0.400 au  H             1.00      1 P:x             9
                        (      10.872 eV)
   131     131       --         0.400 au  H             1.00      1 P:y             9
                        (      10.872 eV)
   132     132       --         0.400 au  H             1.00      1 P:z             9
                        (      10.872 eV)
   133     133      1.000      -0.244 au  H             1.00      1 S              10
                        (      -6.626 eV)
   134     134       --         0.093 au  H             1.00      2 S              10
                        (       2.536 eV)
   135     135       --         1.515 au  H             1.00      3 S              10
                        (      41.236 eV)
   136     136       --         0.400 au  H             1.00      1 P:x            10
                        (      10.872 eV)
   137     137       --         0.400 au  H             1.00      1 P:y            10
                        (      10.872 eV)
   138     138       --         0.400 au  H             1.00      1 P:z            10
                        (      10.872 eV)
   139     139      1.000      -0.244 au  H             1.00      1 S              11
                        (      -6.626 eV)
   140     140       --         0.093 au  H             1.00      2 S              11
                        (       2.536 eV)
   141     141       --         1.515 au  H             1.00      3 S              11
                        (      41.236 eV)
   142     142       --         0.400 au  H             1.00      1 P:x            11
                        (      10.872 eV)
   143     143       --         0.400 au  H             1.00      1 P:y            11
                        (      10.872 eV)
   144     144       --         0.400 au  H             1.00      1 P:z            11
                        (      10.872 eV)
   145     145      1.000      -0.244 au  H             1.00      1 S              12
                        (      -6.626 eV)
   146     146       --         0.093 au  H             1.00      2 S              12
                        (       2.536 eV)
   147     147       --         1.515 au  H             1.00      3 S              12
                        (      41.236 eV)
   148     148       --         0.400 au  H             1.00      1 P:x            12
                        (      10.872 eV)
   149     149       --         0.400 au  H             1.00      1 P:y            12
                        (      10.872 eV)
   150     150       --         0.400 au  H             1.00      1 P:z            12
                        (      10.872 eV)



 ================================
 (Slater-type)  F U N C T I O N S  ***  (Basis and Fit)  ***
 ================================
  

 Atom Type    1  (C)
 ==============

 Valence Basis Sets:   9
 -----------------------
   1 S    7.680000
   1 S    5.000000
   2 S    1.280000
   2 S    2.100000
   2 S    4.600000
   2 P    0.820000
   2 P    1.480000
   2 P    2.940000
   3 D    2.200000

 Atom Type    2  (H)
 ==============

 Valence Basis Sets:   4
 -----------------------
   1 S    0.690000
   1 S    0.920000
   1 S    1.580000
   2 P    1.250000


 BAS: List of all Elementary Cartesian Basis Functions
 =====================================================

 The numbering in the list below (to the right of the function characteristics) is referred
 to in print-outs of MO eigenvectors and Mulliken populations in the BAS representation
 (as contrasted to the SFO representation).

 Notes:
 1. The functions are characterized by a polynomial prefactor (powers of x,y,z and r) and
    an exponential decay factor alpha.
 2. Since the basis sets are specific for an atom TYPE, the individual functions occur on
    all atoms of that type.
 3. The word 'Core' in the left margin signals that it is a Core Function (CF) : not a
    degree of freedom in the valence set, but only used to ensure orthogonalization of
    the other valence basis functions on the frozen Core Orbitals.


 (power of) X  Y  Z  R     Alpha  on Atom
            ==========     =====     ==========

 C                                    1    2    3    4    5    6
                                  ---------------------------------------------------------------------------
            0  0  0  0     7.680      1   21   41   61   81  101
            0  0  0  0     5.000      2   22   42   62   82  102
            0  0  0  1     1.280      3   23   43   63   83  103
            0  0  0  1     2.100      4   24   44   64   84  104
            0  0  0  1     4.600      5   25   45   65   85  105
            1  0  0  0     0.820      6   26   46   66   86  106
            0  1  0  0     0.820      7   27   47   67   87  107
            0  0  1  0     0.820      8   28   48   68   88  108
            1  0  0  0     1.480      9   29   49   69   89  109
            0  1  0  0     1.480     10   30   50   70   90  110
            0  0  1  0     1.480     11   31   51   71   91  111
            1  0  0  0     2.940     12   32   52   72   92  112
            0  1  0  0     2.940     13   33   53   73   93  113
            0  0  1  0     2.940     14   34   54   74   94  114
            2  0  0  0     2.200     15   35   55   75   95  115
            1  1  0  0     2.200     16   36   56   76   96  116
            1  0  1  0     2.200     17   37   57   77   97  117
            0  2  0  0     2.200     18   38   58   78   98  118
            0  1  1  0     2.200     19   39   59   79   99  119
            0  0  2  0     2.200     20   40   60   80  100  120

 H                                    7    8    9   10   11   12
                                  ---------------------------------------------------------------------------
            0  0  0  0     0.690    121  127  133  139  145  151
            0  0  0  0     0.920    122  128  134  140  146  152
            0  0  0  0     1.580    123  129  135  141  147  153
            1  0  0  0     1.250    124  130  136  142  148  154
            0  1  0  0     1.250    125  131  137  143  149  155
            0  0  1  0     1.250    126  132  138  144  150  156

 Total number of charge fitting functions (nprimf)       804
 Total number of Cartesian basis functions (naos)        156
 Total number of Cartesian core functions  (ncos)          0

1
 ***************************************************************************************************



                                              ***********************
                                              *  T E C H N I C A L  *
                                              ***********************
  



 =============================================================
 P A R A L L E L I Z A T I O N  and  V E C T O R I Z A T I O N
 =============================================================
  
 Nr of parallel processes:                                6
 Maximum vector length in NumInt loops:                 128



 =====================
 S C F   U P D A T E S
 =====================
  
 Max. nr. of cycles:                               300
 Convergence criterion:                              0.0000010000
   secondary criterion:                              0.0010000000

 Mix parameter (when DIIS does not apply):           0.2000000000
 Mixed ADIIS+SDIIS will be used                  
    Max number of expansion vectors:                10
    Pure ADIIS when Max([F,P]) is above              0.1000000000
    Pure SDIIS when Max([F,P]) is below              0.0010000000
 Automatic ElectronSmearing (in case of problematic SCF convergence) disabled



 =================
 P R E C I S I O N  ***  (General: NumInt, NeglectFunctionTails, ...)  ***
 =================
  

 NumInt:           Target precision:                 4.0000000000
 -------           Initial precision:                4.0000000000
                   Min. precision (optimization):    4.0000000000

 Neglect Functions:          Basis functions:        0.1000000000E-13
 ------------------          Fit functions:          0.1000000000E-13



 ===========================
 L I N E A R   S C A L I N G
 ===========================
  

 Cut-off radii density fit:                        0.1000000000E-07
 Overlap cut-off criterion AO matrix elements:     0.1000000000E-05
 Cut-offs for Coulomb potential and fitted density:0.1000000000E-07
 Cut-off criterion for Coulomb multipole terms:    0.1000000000E-07
 Progressive Convergence parameter:                 0.000000000    
1
 ***************************************************************************************************



                                            ***************************
                                            *  C O M P U T A T I O N  *
                                            ***************************
  

 Number of elements of the density matrix on this node (used, total):      1962     12246



 ===========================================
 Numerical Integration : Fuzzy Cells (Becke)
 ===========================================
  
 Becke grid quality: NORMAL         
  
 Lebedev angular grid order:             min:  11 max:  23
 Nr. of radial points:                   min:  46 max:  52

 Total nr. of points:      75660
 Nr. of blocks:              592
 Block length:               128
 Nr. of dummy points:        116


 Test of Precision of the Numerical Integration Grid
 ===================================================

 Integral of the Total Core Density:                   0.00000000000000



 ========================
 Density Fitting (zlmFit)
 ========================
  
 ZlmFit Fit Quality: NORMAL         
  
 Max L-expansion:                        min:   5 max:   6
 Nr. of radial interpolation points:     min:  36 max:  48



 =====
 S C F  ***  ScaSCF  ***
 =====
  
 Initial density matrix is calculated as sum of fragments

 CYCLE    1
 SCF Error: norm([F,P])=      5.990928444416, max([F,P])=      0.980364572178
 orbitals (Q,E):
 ---------------
 A :12...31          ( 2.00    -0.6583)  ( 2.00    -0.6250)  ( 2.00    -0.5884)  ( 2.00    -0.5693)
                     ( 2.00    -0.5687)  ( 2.00    -0.5031)  ( 2.00    -0.5017)  ( 2.00    -0.5014)
                     ( 2.00    -0.4056)  ( 2.00    -0.4054)  ( 0.00    -0.2151)  ( 0.00    -0.2150)
                     ( 0.00    -0.0768)  ( 0.00    -0.0731)  ( 0.00    -0.0375)  ( 0.00    -0.0375)
                     ( 0.00    -0.0112)  ( 0.00    -0.0110)  ( 0.00     0.0270)  ( 0.00     0.0510)

 CYCLE    2
   MIX coefficients:  0.8000  0.2000
 SCF Error: norm([F,P])=      0.892315671213, max([F,P])=      0.187104751682
 orbitals (Q,E):
 ---------------
 A :12...22          ( 2.00    -0.5946)  ( 2.00    -0.5421)  ( 2.00    -0.5328)  ( 2.00    -0.5025)
                     ( 2.00    -0.5018)  ( 2.00    -0.4366)  ( 2.00    -0.4345)  ( 2.00    -0.4341)
                     ( 2.00    -0.3390)  ( 2.00    -0.3387)  ( 0.00    -0.1501)

 CYCLE    3
  SDIIS (wt  0.000): -1.2669  2.2669
 A-DIIS (wt  1.000):  0.0000  1.0000
  DIIS coefficients:  0.0000  1.0000
 SCF Error: norm([F,P])=      0.521448994539, max([F,P])=      0.102608996794
 orbitals (Q,E):
 ---------------
 A :12...22          ( 2.00    -0.3985)  ( 2.00    -0.3564)  ( 2.00    -0.2969)  ( 2.00    -0.2961)
                     ( 2.00    -0.2951)  ( 2.00    -0.2475)  ( 2.00    -0.2229)  ( 2.00    -0.2225)
                     ( 2.00    -0.1500)  ( 2.00    -0.1497)  ( 0.00     0.0285)

 CYCLE    4
  SDIIS (wt  0.000):  0.1837  0.3520  0.4642
 A-DIIS (wt  1.000): -0.0000  0.6402  0.3598
  DIIS coefficients: -0.0000  0.6402  0.3598
 SCF Error: norm([F,P])=      0.743241950111, max([F,P])=      0.172653923746
 orbitals (Q,E):
 ---------------
 A :12...22          ( 2.00    -0.4673)  ( 2.00    -0.4037)  ( 2.00    -0.3933)  ( 2.00    -0.3711)
                     ( 2.00    -0.3704)  ( 2.00    -0.3293)  ( 2.00    -0.2972)  ( 2.00    -0.2968)
                     ( 2.00    -0.2287)  ( 2.00    -0.2285)  ( 0.00    -0.0405)

 CYCLE    5
  SDIIS (wt  0.902): -0.0172  0.2160  0.0733  0.7280
 A-DIIS (wt  0.098):  0.0000  0.0000  0.0000  1.0000
  DIIS coefficients: -0.0155  0.1947  0.0661  0.7548
 SCF Error: norm([F,P])=      0.076223092594, max([F,P])=      0.010730058093
 orbitals (Q,E):
 ---------------
 A :12...22          ( 2.00    -0.4793)  ( 2.00    -0.4187)  ( 2.00    -0.4084)  ( 2.00    -0.3830)
                     ( 2.00    -0.3823)  ( 2.00    -0.3380)  ( 2.00    -0.3111)  ( 2.00    -0.3107)
                     ( 2.00    -0.2385)  ( 2.00    -0.2382)  ( 0.00    -0.0510)

 CYCLE    6
  SDIIS (wt  0.993): -0.0029  0.0315  0.0082  0.1928  0.7703
 A-DIIS (wt  0.007):  0.0000  0.0000  0.0000  0.0000  1.0000
  DIIS coefficients: -0.0028  0.0313  0.0082  0.1913  0.7720
 SCF Error: norm([F,P])=      0.010719528782, max([F,P])=      0.001733017759
 orbitals (Q,E):
 ---------------
 A :12...22          ( 2.00    -0.4790)  ( 2.00    -0.4180)  ( 2.00    -0.4073)  ( 2.00    -0.3828)
                     ( 2.00    -0.3821)  ( 2.00    -0.3374)  ( 2.00    -0.3106)  ( 2.00    -0.3102)
                     ( 2.00    -0.2378)  ( 2.00    -0.2375)  ( 0.00    -0.0502)

 CYCLE    7
  SDIIS (wt  1.000):  0.0006  0.0037  0.0007  0.0338  0.1638  0.7973
  DIIS coefficients:  0.0006  0.0037  0.0007  0.0338  0.1638  0.7973
 SCF Error: norm([F,P])=      0.001275048471, max([F,P])=      0.000326882136
 orbitals (Q,E):
 ---------------
 A :12...22          ( 2.00    -0.4791)  ( 2.00    -0.4181)  ( 2.00    -0.4075)  ( 2.00    -0.3829)
                     ( 2.00    -0.3822)  ( 2.00    -0.3376)  ( 2.00    -0.3107)  ( 2.00    -0.3103)
                     ( 2.00    -0.2380)  ( 2.00    -0.2377)  ( 0.00    -0.0504)

 CYCLE    8
  SDIIS (wt  1.000):  0.0006  0.0007  0.0000  0.0122  0.0678  0.5166  0.4021
  DIIS coefficients:  0.0006  0.0007  0.0000  0.0122  0.0678  0.5166  0.4021
 SCF Error: norm([F,P])=      0.000820865942, max([F,P])=      0.000198830481
 orbitals (Q,E):
 ---------------
 A :12...22          ( 2.00    -0.4791)  ( 2.00    -0.4181)  ( 2.00    -0.4075)  ( 2.00    -0.3829)
                     ( 2.00    -0.3822)  ( 2.00    -0.3376)  ( 2.00    -0.3107)  ( 2.00    -0.3103)
                     ( 2.00    -0.2380)  ( 2.00    -0.2377)  ( 0.00    -0.0504)

 CYCLE    9
  SDIIS (wt  1.000):  0.0001 -0.0002 -0.0000 -0.0004 -0.0008  0.0136  0.0905  0.8973
  DIIS coefficients:  0.0001 -0.0002 -0.0000 -0.0004 -0.0008  0.0136  0.0905  0.8973
 SCF Error: norm([F,P])=      0.000077794632, max([F,P])=      0.000018044847
 orbitals (Q,E):
 ---------------
 A :12...22          ( 2.00    -0.4791)  ( 2.00    -0.4181)  ( 2.00    -0.4075)  ( 2.00    -0.3829)
                     ( 2.00    -0.3822)  ( 2.00    -0.3376)  ( 2.00    -0.3107)  ( 2.00    -0.3103)
                     ( 2.00    -0.2380)  ( 2.00    -0.2377)  ( 0.00    -0.0504)

 CYCLE   10
  SDIIS (wt  1.000):  0.0000 -0.0001 -0.0000 -0.0002 -0.0004  0.0058  0.0405  0.4044  0.5500
  DIIS coefficients:  0.0000 -0.0001 -0.0000 -0.0002 -0.0004  0.0058  0.0405  0.4044  0.5500
 SCF Error: norm([F,P])=      0.000007870845, max([F,P])=      0.000001950391
 orbitals (Q,E):
 ---------------
 A :12...22          ( 2.00    -0.4791)  ( 2.00    -0.4181)  ( 2.00    -0.4075)  ( 2.00    -0.3829)
                     ( 2.00    -0.3822)  ( 2.00    -0.3376)  ( 2.00    -0.3107)  ( 2.00    -0.3103)
                     ( 2.00    -0.2380)  ( 2.00    -0.2377)  ( 0.00    -0.0504)

 CYCLE   11
  SDIIS (wt  1.000):  0.0000 -0.0000 -0.0000  0.0000 -0.0000 -0.0002 -0.0007 -0.0058  0.5105  0.4962
  DIIS coefficients:  0.0000 -0.0000 -0.0000  0.0000 -0.0000 -0.0002 -0.0007 -0.0058  0.5105  0.4962
 SCF Error: norm([F,P])=      0.000007997695, max([F,P])=      0.000002002951
 orbitals (Q,E):
 ---------------
 A :12...22          ( 2.00    -0.4791)  ( 2.00    -0.4181)  ( 2.00    -0.4075)  ( 2.00    -0.3829)
                     ( 2.00    -0.3822)  ( 2.00    -0.3376)  ( 2.00    -0.3107)  ( 2.00    -0.3103)
                     ( 2.00    -0.2380)  ( 2.00    -0.2377)  ( 0.00    -0.0504)

 CYCLE   12
  SDIIS (wt  1.000): -0.0000 -0.0000  0.0000 -0.0000 -0.0001 -0.0003 -0.0031  0.1085  0.1065  0.7886
  DIIS coefficients: -0.0000 -0.0000  0.0000 -0.0000 -0.0001 -0.0003 -0.0031  0.1085  0.1065  0.7886
 SCF Error: norm([F,P])=      0.000000081654, max([F,P])=      0.000000016662
 orbitals (Q,E):
 ---------------
 A :12...22          ( 2.00    -0.4791)  ( 2.00    -0.4181)  ( 2.00    -0.4075)  ( 2.00    -0.3829)
                     ( 2.00    -0.3822)  ( 2.00    -0.3376)  ( 2.00    -0.3107)  ( 2.00    -0.3103)
                     ( 2.00    -0.2380)  ( 2.00    -0.2377)  ( 0.00    -0.0504)

 SCF CONVERGED

 CYCLE   13
1
 ***************************************************************************************************



                                                *******************
                                                *  R E S U L T S  *
                                                *******************
  
 *** Using FIT density in Focky
  SDIIS (wt  1.000): -0.0000  0.0000 -0.0000 -0.0000 -0.0001 -0.0009  0.0298  0.0294  0.5084  0.4334
  DIIS coefficients: -0.0000  0.0000 -0.0000 -0.0000 -0.0001 -0.0009  0.0298  0.0294  0.5084  0.4334
 SCF Error: norm([F,P])=      0.000000082994, max([F,P])=      0.000000017295

 Orbital Energies, per Irrep and Spin:
 ======================================
                        Occup              E (au)              E (eV)       Diff (eV) with prev. cycle
                        -----      --------------------        ------       --------------------------
 A
              12        2.000     -0.47913059103176E+00       -13.038              -3.75E-09
              13        2.000     -0.41810883166433E+00       -11.377              -3.84E-09
              14        2.000     -0.40754620868838E+00       -11.090               1.74E-09
              15        2.000     -0.38292338060920E+00       -10.420               1.15E-09
              16        2.000     -0.38223019023526E+00       -10.401              -6.13E-09
              17        2.000     -0.33757664953827E+00        -9.186              -1.91E-09
              18        2.000     -0.31071206065462E+00        -8.455               1.52E-09
              19        2.000     -0.31028693474647E+00        -8.443              -3.51E-09
              20        2.000     -0.23798977298248E+00        -6.476               1.72E-09
              21        2.000     -0.23770634919668E+00        -6.468              -3.92E-09
              22        0.000     -0.50418173330273E-01        -1.372
              23        0.000     -0.50295372511294E-01        -1.369
              24        0.000      0.20365648576156E-02         0.055
              25        0.000      0.27828486148800E-01         0.757
              26        0.000      0.27876447153493E-01         0.759
              27        0.000      0.60709951945264E-01         1.652
              28        0.000      0.60769011850546E-01         1.654
              29        0.000      0.90660736231425E-01         2.467
              30        0.000      0.96120959018175E-01         2.616
              31        0.000      0.14212483624271E+00         3.867
  
 HOMO :       21 A                -0.23770634919668E+00
 LUMO :       22 A                -0.50418173330273E-01
  


 All Electron Calculation, thus no Orbital Energies of the Core Orbitals are calculated


 Fit test: (difference of exact and fit density, squared integrated, result summed over spins)
         Sum-of-Fragments:                             0.00000000048364
         Orthogonalized Fragments:                     0.00013302081689
         SCF:                                          0.00048716551632



 ==========================
 Electron Density at Nuclei
 ==========================
  
 The electron density is calculated at points on a small sphere around the center of a nucleus.
 The printed electron density is the average electron density on these points.
 The radius of the sphere is the printed approximate finite nuclear radius.

         Atom        Nuclear Radius (Angstrom)             Electron Density (a.u.)
         ----        -------------------------             -----------------------
     1)   C                 0.0000320678                              126.51443
     2)   C                 0.0000320678                              126.51583
     3)   C                 0.0000320678                              126.51454
     4)   C                 0.0000320678                              126.51443
     5)   C                 0.0000320678                              126.51582
     6)   C                 0.0000320678                              126.51452
     7)   H                 0.0000181514                                0.49883
     8)   H                 0.0000181514                                0.49861
     9)   H                 0.0000181514                                0.49864
    10)   H                 0.0000181514                                0.49883
    11)   H                 0.0000181514                                0.49856
    12)   H                 0.0000181514                                0.49864



 =======================================
 M U L L I K E N   P O P U L A T I O N S
 =======================================
  
 The survey below gives for each atom:
 a) the total charge (Z minus electrons)
 b) the net spin polarization (nr of electrons spin-A minus spin-B)
 c) for each spin the atomic electron valence density (integrated) per L-value.

 Atom              Charge    Spin density          S         P         D         F
 ----              ------    ------------       ------    ------    ------    ------
 1 C               0.1754                       3.0649    2.6987    0.0610    0.0000
 2 C               0.1760                       3.0647    2.6983    0.0610    0.0000
 3 C               0.1752                       3.0652    2.6986    0.0610    0.0000
 4 C               0.1754                       3.0650    2.6987    0.0610    0.0000
 5 C               0.1760                       3.0647    2.6983    0.0610    0.0000
 6 C               0.1752                       3.0652    2.6986    0.0610    0.0000
 7 H              -0.1759                       1.1044    0.0714    0.0000    0.0000
 8 H              -0.1757                       1.1043    0.0714    0.0000    0.0000
 9 H              -0.1750                       1.1037    0.0714    0.0000    0.0000
 10 H             -0.1759                       1.1044    0.0714    0.0000    0.0000
 11 H             -0.1757                       1.1043    0.0714    0.0000    0.0000
 12 H             -0.1750                       1.1037    0.0714    0.0000    0.0000

 Populations of individual BAS functions
 ----------------------------------------
 1 C            0.4869  1.5144  0.2298  0.8872 -0.0535 -0.1033  0.1475 -0.2378  0.8054  0.6780
                0.8823  0.2001  0.1366  0.1899  0.0268  0.0122  0.0174 -0.0175  0.0040  0.0181
 2 C            0.4870  1.5144  0.2295  0.8874 -0.0535 -0.2022  0.1475 -0.1400  0.8620  0.6780
                0.8265  0.1925  0.1366  0.1973  0.0180  0.0062  0.0220 -0.0175  0.0100  0.0222
 3 C            0.4870  1.5144  0.2300  0.8872 -0.0535 -0.2075  0.1472 -0.1340  0.8648  0.6782
                0.8234  0.1923  0.1366  0.1977  0.0180  0.0059  0.0216 -0.0175  0.0103  0.0227
 4 C            0.4869  1.5144  0.2298  0.8872 -0.0535 -0.1033  0.1475 -0.2378  0.8054  0.6780
                0.8823  0.2001  0.1366  0.1899  0.0268  0.0122  0.0174 -0.0175  0.0040  0.0181
 5 C            0.4870  1.5144  0.2294  0.8874 -0.0535 -0.2022  0.1475 -0.1400  0.8620  0.6780
                0.8265  0.1925  0.1366  0.1973  0.0180  0.0062  0.0220 -0.0175  0.0100  0.0222
 6 C            0.4870  1.5144  0.2301  0.8872 -0.0535 -0.2075  0.1472 -0.1340  0.8648  0.6782
                0.8234  0.1923  0.1366  0.1977  0.0180  0.0059  0.0216 -0.0175  0.0103  0.0227
 7 H            0.2098  0.5758  0.3189  0.0288  0.0217  0.0209
 8 H            0.2093  0.5762  0.3188  0.0295  0.0217  0.0202
 9 H            0.2085  0.5762  0.3189  0.0162  0.0217  0.0334
 10 H           0.2098  0.5758  0.3189  0.0288  0.0217  0.0209
 11 H           0.2093  0.5763  0.3187  0.0295  0.0217  0.0202
 12 H           0.2085  0.5762  0.3189  0.0162  0.0217  0.0334

 Gross Charges per Atom (Z minus electrons)
 ==========================================
             0.1754    0.1760    0.1752    0.1754    0.1760    0.1752   -0.1759   -0.1757   -0.1750   -0.1759
            -0.1757   -0.1750
 Net Total:  0.00000000


 Atom-Atom Population Matrix (off-diagonal elements not doubled)
 ===============================================================

     1 :     4.5229
     2 :     0.5419    4.5222
     3 :    -0.0103    0.5417    4.5224
     4 :    -0.0557   -0.0109    0.5417    4.5229
     5 :    -0.0108   -0.0558   -0.0107    0.5419    4.5222
     6 :     0.5417   -0.0107   -0.0553   -0.0103    0.5417    4.5224
     7 :    -0.0536    0.3938   -0.0536    0.0021    0.0041    0.0022    0.9824
     8 :     0.0022   -0.0534    0.3939   -0.0537    0.0021    0.0041   -0.0476    0.9816
     9 :     0.0041    0.0021   -0.0535    0.3939   -0.0532    0.0022   -0.0039   -0.0474    0.9808
    10 :     0.0021    0.0041    0.0022   -0.0536    0.3938   -0.0536    0.0016   -0.0038   -0.0477    0.9824
    11 :    -0.0537    0.0021    0.0041    0.0022   -0.0534    0.3939   -0.0038    0.0015   -0.0038   -0.0476
             0.9816
    12 :     0.3939   -0.0532    0.0022    0.0041    0.0020   -0.0535   -0.0477   -0.0038    0.0016   -0.0039
            -0.0474    0.9808



 =================================================
 H I R S H F E L D   C H A R G E   A N A L Y S I S
 =================================================
  
 For each fragment: the (numerical) integral of rho(scf) * rho(fragment)/rho(sum-of-fragments)
 (nuclear charges are included, electrons are counted negative)

 The fragments and their ordering are defined in the early G E O M E T R Y output section.
 If you use single-atom fragments, this usually implies that all atoms of the same
 chemical type are grouped together. This may not be the order in which you listed them
 in the input file!

    1  C                        -0.0463
    2  C                        -0.0464
    3  C                        -0.0463
    4  C                        -0.0463
    5  C                        -0.0464
    6  C                        -0.0462
    7  H                         0.0461
    8  H                         0.0465
    9  H                         0.0462
   10  H                         0.0461
   11  H                         0.0465
   12  H                         0.0462

 Sum of these charges (accuracy NumInt/Tails) =          -0.00006096



 =============================
 V O R O N O I   C H A R G E S
 =============================
  
 For each atom: the (numerical) integral of the total electronic charge density in its Voronoi cell,
 i.e. the region of space that is closer to that atom than to any other atom.
 (cf. Wigner-Seitz cells in crystals)

 Within the Voronoi cell the subintegrals over the atomic sphere and the remaining part are evaluated
 separately to give the numbers of electrons (negative charge) in these regions.
 The net total charge in the cell (including the nuclear charge) is also given.

 Values are provided for
    a) the Initial (sum-of-fragments) density
    b) the Orthogonalized-Fragments density
    c) the SCF density
    d) the Voronoi Deformation Density (VDD): the difference SCF-Initial for the complete atomic cell


  Atom                Initial                    OrthFrag                   SCF
             Sphere RestCell NetTotal   Sphere RestCell NetTotal   Sphere RestCell NetTotal      VDD
 -----       ------------------------   ------------------------   ------------------------    -----
    1 C      -2.268   -3.190    0.542   -2.452   -3.140    0.408   -2.303   -3.210    0.487   -0.055
    2 C      -2.269   -3.191    0.541   -2.452   -3.137    0.411   -2.303   -3.208    0.489   -0.051
    3 C      -2.269   -3.189    0.543   -2.452   -3.142    0.406   -2.303   -3.211    0.485   -0.057
    4 C      -2.268   -3.190    0.542   -2.452   -3.140    0.408   -2.303   -3.210    0.487   -0.055
    5 C      -2.269   -3.191    0.541   -2.452   -3.137    0.411   -2.303   -3.208    0.489   -0.051
    6 C      -2.269   -3.189    0.543   -2.452   -3.142    0.406   -2.303   -3.211    0.485   -0.057
    7 H      -0.075   -1.473   -0.548   -0.096   -1.317   -0.413   -0.109   -1.384   -0.493    0.055
    8 H      -0.075   -1.465   -0.539   -0.096   -1.309   -0.405   -0.109   -1.375   -0.483    0.056
    9 H      -0.075   -1.464   -0.538   -0.096   -1.311   -0.407   -0.109   -1.377   -0.486    0.053
   10 H      -0.075   -1.473   -0.548   -0.096   -1.317   -0.413   -0.109   -1.384   -0.493    0.055
   11 H      -0.075   -1.465   -0.539   -0.096   -1.309   -0.405   -0.109   -1.375   -0.483    0.056
   12 H      -0.075   -1.464   -0.538   -0.096   -1.311   -0.407   -0.109   -1.377   -0.486    0.053
 ---------------------------------------------------------------------------------------------------
 Total NetCharge:              -0.000                     -0.000                     -0.000    0.000
 (accuracy NumInt/Tails)

 Remark: the 'NetTotal' Voronoi charges often do not match the Mulliken and/or Hirshfeld charges very
 well. This is caused by the fact that chemically different atoms are not treated in accordance with
 their relative sizes. (Voronoi cells are defined by boundary planes halfway between the atoms.)
 However, the CHANGES in charge, comparing 'Initial' to 'SCF' for instance, do give a fair indication
 of the flow of charge caused by the relaxation from sum-of-fragments to self-consistency.

 Warning: the absolute accuracy of the VDD charges obtained using the Fuzzy Cells (Becke) integration
 scheme is much poorer than the one obtained with an 'equivalent' Voronoi integration grid. 



 =================================================================
 M U L T I P O L E   D E R I V E D   C H A R G E   A N A L Y S I S
 =================================================================

 This charge analysis uses the atomic multipoles (obtained from the fitted density) up to some level X,
 and reconstructs these multipoles exactly (up to level X) by distributing charges over all atoms.
 This is achieved by using Lagrange multipliers and a weight function to keep the multipoles local.

 Dummy atoms can be included (by setting INCDUM in MDC-block to 1) to obtain a fractional charge.
 This is generally useful and necessary only for small symmetrical molecules, when there are not
 enough degrees of freedom to reconstruct the multipoles.

 Since the atomic multipoles are reconstructed up to level X,
 the molecular multipoles are represented also up to level X.
 The recommended level is to reconstruct up to quadrupole : -> MDC-q charges.

 See: M. Swart, P.Th. van Duijnen, J.G. Snijders, J.Comput.Chem., (2001), p. 79-88.

 ------------------------------------------------------------- 
 Atomic electronic multipole moments from SCF equations (a.u.)
 ------------------------------------------------------------- 

   atom        charge        dip-x     dip-y     dip-z      quad-xx   quad-xy   quad-xz   quad-yy   quad-yz   quad-zz
 --------------------------------------------------------------------------------------------------------------------
    1 C      0.060866     0.000767  0.000000 -0.047133     0.468846 -0.000000 -0.000067 -0.996618 -0.000000  0.527771
    2 C      0.060356    -0.042048  0.000000 -0.025729     0.508000 -0.000000  0.014422 -0.994183  0.000000  0.486183
    3 C      0.060691    -0.042493  0.000000  0.023303     0.513121 -0.000000 -0.015405 -0.994526 -0.000000  0.481404
    4 C      0.060867    -0.000789 -0.000000  0.047135     0.468860 -0.000000 -0.000112 -0.996620  0.000000  0.527760
    5 C      0.060355     0.042045  0.000000  0.025728     0.508007 -0.000000  0.014426 -0.994180  0.000000  0.486173
    6 C      0.060683     0.042467  0.000000 -0.023277     0.513140 -0.000000 -0.015381 -0.994523  0.000000  0.481382
    7 H     -0.060887    -0.019290  0.000000 -0.011830     0.160102  0.000000  0.080506 -0.195535 -0.000000  0.035433
    8 H     -0.060361    -0.019990  0.000000  0.010978     0.170863  0.000000 -0.076603 -0.195513  0.000000  0.024650
    9 H     -0.060667    -0.000378  0.000000  0.022630    -0.038585  0.000000 -0.003552 -0.194892 -0.000000  0.233476
   10 H     -0.060887     0.019290  0.000000  0.011831     0.160102 -0.000000  0.080508 -0.195534  0.000000  0.035431
   11 H     -0.060351     0.020009  0.000000 -0.010979     0.170870  0.000000 -0.076596 -0.195509 -0.000000  0.024639
   12 H     -0.060666     0.000362  0.000000 -0.022631    -0.038590  0.000000 -0.003535 -0.194890  0.000000  0.233480

 --------------------------------------- 
 Multipole derived atomic charges (a.u.)
 --------------------------------------- 

 The MDC-m charges are just the Monopole terms in the multipole expansion, while for the MDC-d charges
 also the Dipoles are reconstructed. The usually preferred charges are the MDC-q charges.
 These reconstruct the Monopoles, Dipoles and Quadrupoles (both atomic AND molecular).

        Atom    Level:     MDC-m        MDC-d        MDC-q
 ---------------------------------------------------------
     1     C            0.060866     0.034925    -0.125983
     2     C            0.060356     0.034468    -0.128062
     3     C            0.060691     0.034681    -0.127836
     4     C            0.060867     0.034926    -0.125977
     5     C            0.060355     0.034466    -0.128068
     6     C            0.060683     0.034670    -0.127811
     7     H           -0.060887    -0.034659     0.127324
     8     H           -0.060361    -0.034337     0.127842
     9     H           -0.060667    -0.035073     0.126712
    10     H           -0.060887    -0.034660     0.127324
    11     H           -0.060351    -0.034334     0.127824
    12     H           -0.060666    -0.035074     0.126712

 ------------------------------------------------ 
 Average absolute deviations in atomic multipoles
 ------------------------------------------------ 

 Stated here are the average differences between the atomic multipoles
 and the reconstructed atomic multipoles (from the distributed charges).
 If these values are not zero, this means there are not enough degrees of freedom,
 to be able to reconstruct the atomic multipoles. (This usually happens only
 for small and/or highly symmetric molecules). If this is the case, one could add
 dummy atoms as extra point charges (and setting INCDUM in MDC-block to 1).

 Level:                                 MDC-d        MDC-q
 ---------------------------------------------------------
 Charge   (a.u.)                       0.0000       0.0000
 Dipole   (Debye)                      0.0000       0.0000
 Quad.    (a.u.)                       0.2134       0.0000

 --------------------------------------- 
 Represented molecular multipole moments
 --------------------------------------- 

 Given here are the Molecular multipole moments from the atomic charges, and from the Fit Density.
 Note that the atomic charges represent the latter, NOT the ones from the Exact density.

            Q (a.u.)             Dipole moment (Debye)                                          Quadrupole moment (a.u.)
                                 x         y         z              xx        xy        xz        yy        yz        zz
------------------------------------------------------------------------------------------------------------------------
MDC-m        -0.0000        0.0001   -0.0000   -0.0000         -1.3792    0.0003   -0.0202    2.7586   -0.0001   -1.3794
MDC-d        -0.0000       -0.0001   -0.0000    0.0000         -0.7724   -0.0003   -0.0116    1.5782    0.0001   -0.8058
MDC-q        -0.0000       -0.0001   -0.0000    0.0000          2.9014   -0.0003   -0.0128   -5.7910    0.0001    2.8896
 
Fit.Dens.    -0.0000       -0.0001    0.0000    0.0000          2.9014   -0.0003   -0.0135   -5.7910    0.0001    2.8896



 =============
 Dipole Moment  ***  (Debye)  ***
 =============
  
 Vector   :        -0.00005896     -0.00000009      0.00003128
 Magnitude:         0.00006674

 This molecular dipole moment is calculated with analytic integration



 =========================================
 Quadrupole Moment (Buckingham convention)  ***  (a.u.)  ***
 =========================================
  
      quad-xx        quad-xy        quad-xz        quad-yy        quad-yz        quad-zz
      2.91274880    -0.00026284    -0.01515162    -5.81933148     0.00013951     2.90658268

 This molecular quadrupole moment is calculated with analytic integration
1



 =======================================================
 S F O   P O P U L A T I O N S ,   M O   A N A L Y S I S
 =======================================================
  
 A Mulliken population analysis is performed on (input-)selected MOs. All populations refer to SFOs.
 BAS populations may have been printed directly after the SCF part.


                                       === A ===


 SFO contributions (%) per orbital
 (multiplication by the orbital occupation yields the SFO Gross Populations)

 Orb.:       12     13     14     15     16     17     18     19     20     21     22     23     24     25
 occup:     2.00   2.00   2.00   2.00   2.00   2.00   2.00   2.00   2.00   2.00   0.00   0.00   0.00   0.00
 CF+SFO     ----   ----   ----   ----   ----   ----   ----   ----   ----   ----   ----   ----   ----   ----
 ------
      2:    0.24   4.04  -0.00   0.00   0.03  -0.00  -0.03  -0.04  -0.00   0.00   0.00  -0.00  -0.24   0.01
      3:   -0.08   0.11  -0.00  -0.07  -0.12  -0.00  -0.01  -0.01   0.00   0.00  -0.00  -0.00  -2.69  -0.20
      6:    0.00   0.00  14.44   0.22   0.21  -0.00   5.50   3.68   0.00  -0.00  -0.00   0.00   0.00  -1.42
      7:    0.00   0.00   2.00   0.40   0.27   0.00   1.83   1.22  -0.00  -0.00  -0.00  -0.00  -0.00  -6.66
      9:    0.00  -0.00  -0.00   0.00   0.00  17.22  -0.00  -0.00  12.88  18.89  10.50  24.00   0.00   0.00
     10:   -0.00   0.00  -0.00   0.00   0.00  -0.98  -0.00  -0.00   0.05   0.07  -1.17  -2.68   0.00   0.00
     12:   10.70   2.58   0.00   6.37  11.43   0.00   2.31   3.56  -0.00  -0.00  -0.00  -0.00   0.73   0.27
     13:    0.23   0.28   0.00   0.48   0.78  -0.00   0.55   0.91  -0.00  -0.00   0.00  -0.00  -0.51  -3.31
     21:    0.24   4.03  -0.00  -0.00   0.03   0.00  -0.01  -0.06  -0.00   0.00  -0.00  -0.00  -0.25   0.01
     22:   -0.08   0.11  -0.00  -0.03  -0.15   0.00  -0.00  -0.02  -0.00  -0.00   0.00   0.00  -2.68  -0.12
     25:    7.81   1.88   3.90   1.15  11.96   0.00   4.88   1.89   0.00  -0.00   0.00   0.00   0.53  -0.81
     26:    0.17   0.21   0.54  -0.31   1.41  -0.00   1.69   0.20   0.00  -0.00  -0.00  -0.00  -0.37  -7.20
     28:    0.00   0.00   0.00  -0.00  -0.00  17.22   0.00   0.00   3.88  27.88   6.87  27.63   0.00   0.00
     29:    0.00   0.00   0.00  -0.00  -0.00  -0.98   0.00   0.00   0.01   0.10  -0.77  -3.09   0.00  -0.00
     31:    2.89   0.68  10.56   2.07   3.02  -0.00   3.92   4.34   0.00  -0.00  -0.00  -0.00   0.20  -0.75
     32:    0.06   0.07   1.47   1.07  -0.24   0.00   1.19   1.45   0.00   0.00  -0.00   0.00  -0.14  -2.59
     40:    0.24   4.02  -0.00   0.04   0.00  -0.00  -0.06  -0.00   0.00  -0.00  -0.00   0.00  -0.24   0.04
     41:   -0.08   0.11  -0.00  -0.18  -0.00  -0.00  -0.02  -0.00   0.00  -0.00   0.00  -0.00  -2.70  -0.60
     44:    8.21   2.08   3.32  13.73  -0.04   0.00   3.26   3.35  -0.00   0.00   0.00  -0.00   0.55   0.66
     45:    0.18   0.22   0.46   1.13  -0.01  -0.00   0.67   1.16  -0.00   0.00   0.00   0.00  -0.39  -7.80
     47:   -0.00  -0.00  -0.00   0.00   0.00  17.21   0.00   0.00  30.89   0.87  34.37   0.13  -0.00   0.00
     48:   -0.00   0.00  -0.00   0.00   0.00  -0.98  -0.00  -0.00   0.11   0.00  -3.84  -0.01   0.00  -0.00
     50:    2.48   0.63  11.16   3.71   0.68   0.00   2.68   5.73  -0.00   0.00  -0.00   0.00   0.17   0.07
     51:    0.05   0.07   1.53   0.12   0.68  -0.00   0.85   1.83  -0.00  -0.00  -0.00   0.00  -0.12  -3.34
     59:    0.24   4.04  -0.00   0.00   0.03  -0.00  -0.03  -0.04   0.00  -0.00   0.00   0.00  -0.24   0.01
     60:   -0.08   0.11  -0.00  -0.07  -0.12   0.00  -0.01  -0.01  -0.00  -0.00  -0.00   0.00  -2.69  -0.20
     63:    0.00   0.00  14.44   0.22   0.21  -0.00   5.50   3.68   0.00   0.00   0.00  -0.00   0.00  -1.42
     64:    0.00   0.00   2.00   0.40   0.27   0.00   1.83   1.22  -0.00  -0.00   0.00  -0.00  -0.00  -6.66
     66:    0.00   0.00   0.00  -0.00  -0.00  17.22   0.00   0.00  12.88  18.89  10.50  24.00   0.00   0.00
     67:    0.00   0.00   0.00  -0.00  -0.00  -0.98   0.00   0.00   0.05   0.07  -1.17  -2.68  -0.00   0.00
     69:   10.70   2.58   0.00   6.37  11.43   0.00   2.31   3.56  -0.00   0.00  -0.00   0.00   0.73   0.27
     70:    0.23   0.28   0.00   0.48   0.78   0.00   0.55   0.91  -0.00   0.00  -0.00   0.00  -0.51  -3.31
     78:    0.24   4.03  -0.00  -0.00   0.03  -0.00  -0.01  -0.06   0.00  -0.00   0.00   0.00  -0.25   0.01
     79:   -0.08   0.11  -0.00  -0.03  -0.15   0.00  -0.00  -0.02   0.00  -0.00  -0.00   0.00  -2.68  -0.11
     82:    7.81   1.88   3.90   1.15  11.96  -0.00   4.87   1.89   0.00  -0.00   0.00  -0.00   0.53  -0.81
     83:    0.17   0.21   0.54  -0.31   1.41   0.00   1.69   0.20  -0.00  -0.00   0.00  -0.00  -0.37  -7.20
     85:   -0.00  -0.00   0.00   0.00   0.00  17.22  -0.00  -0.00   3.88  27.88   6.87  27.63   0.00  -0.00
     86:   -0.00  -0.00   0.00   0.00   0.00  -0.98  -0.00  -0.00   0.01   0.10  -0.77  -3.09   0.00   0.00
     88:    2.89   0.68  10.56   2.07   3.02  -0.00   3.92   4.34   0.00   0.00   0.00   0.00   0.20  -0.75
     89:    0.06   0.07   1.47   1.07  -0.24  -0.00   1.19   1.45   0.00  -0.00   0.00   0.00  -0.14  -2.59
     97:    0.24   4.02  -0.00   0.04   0.00   0.00  -0.06  -0.00  -0.00   0.00  -0.00   0.00  -0.24   0.04
     98:   -0.08   0.11  -0.00  -0.18  -0.00   0.00  -0.02  -0.00  -0.00   0.00   0.00  -0.00  -2.70  -0.60
    101:    8.21   2.08   3.32  13.73  -0.04  -0.00   3.26   3.35   0.00   0.00  -0.00   0.00   0.55   0.66
    102:    0.18   0.22   0.46   1.13  -0.01   0.00   0.67   1.16   0.00   0.00  -0.00   0.00  -0.39  -7.80
    104:   -0.00   0.00  -0.00  -0.00  -0.00  17.21   0.00   0.00  30.89   0.87  34.37   0.13   0.00   0.00
    105:    0.00   0.00  -0.00   0.00  -0.00  -0.98   0.00   0.00   0.11   0.00  -3.84  -0.01  -0.00  -0.00
    107:    2.48   0.63  11.16   3.71   0.68   0.00   2.68   5.73   0.00  -0.00   0.00   0.00   0.17   0.07
    108:    0.05   0.07   1.53   0.12   0.68  -0.00   0.85   1.83   0.00   0.00  -0.00   0.00  -0.12  -3.34
    115:    5.53   9.08  -0.00   2.13  10.90  -0.00   1.52  11.83  -0.00   0.00  -0.00   0.00   7.81   3.99
    116:   -0.02   0.16  -0.00   0.03   0.13   0.00  -0.02  -0.17  -0.00   0.00   0.00   0.00  11.28   5.95
    119:    0.00  -0.00  -0.00   0.00   0.00   0.25  -0.00  -0.00   0.10   0.73   0.27   1.10   0.00   0.00
    121:    5.55   9.29   0.00  12.68   0.16   0.00  12.92   0.43   0.00   0.00   0.00  -0.00   7.80  21.93
    122:   -0.02   0.16   0.00   0.15   0.00  -0.00  -0.19  -0.01   0.00   0.00   0.00  -0.00  11.28  32.53
    125:    0.00   0.00   0.00   0.00  -0.00   0.25   0.00   0.00   0.81   0.02   1.37   0.01   0.00   0.00
    127:    5.53   9.09   0.00   4.64   8.37  -0.00   5.58   7.78   0.00   0.00   0.00  -0.00   7.81   7.05
    128:   -0.02   0.16   0.00   0.06   0.10   0.00  -0.08  -0.11   0.00   0.00   0.00   0.00  11.27  10.50
    133:    5.53   9.07  -0.00   2.13  10.91   0.00   1.52  11.83   0.00   0.00   0.00   0.00   7.81   3.99
    134:   -0.02   0.16  -0.00   0.03   0.13  -0.00  -0.02  -0.17  -0.00   0.00   0.00   0.00  11.28   5.95
    137:    0.00   0.00  -0.00  -0.00   0.00   0.25   0.00   0.00   0.10   0.73   0.27   1.10  -0.00   0.00
    139:    5.55   9.29   0.00  12.68   0.16   0.00  12.92   0.43  -0.00   0.00   0.00  -0.00   7.81  21.93
    140:   -0.02   0.16   0.00   0.15   0.00   0.00  -0.19  -0.01  -0.00   0.00   0.00  -0.00  11.28  32.53
    143:   -0.00  -0.00   0.00   0.00  -0.00   0.25  -0.00  -0.00   0.81   0.02   1.37   0.01  -0.00   0.00
    145:    5.53   9.09   0.00   4.64   8.37  -0.00   5.58   7.78   0.00   0.00   0.00   0.00   7.81   7.05
    146:   -0.02   0.16  -0.00   0.06   0.10  -0.00  -0.08  -0.11   0.00   0.00  -0.00  -0.00  11.27  10.49


 Summation over all MOs, multiplied by occupation: Total SFO Gross Populations in this Irrep
 ===========================================================================================

     2.00    1.07   -0.01   -0.00   -0.00    0.84    0.07   -0.01    0.98   -0.02   -0.00    0.81
     0.03   -0.01    0.02    0.01    0.01    0.02    0.00    2.00    1.07   -0.01   -0.00   -0.00
     0.82    0.04   -0.01    0.98   -0.02   -0.00    0.83    0.06   -0.01    0.02    0.01    0.01
     0.02    0.01    2.00    1.07   -0.01   -0.00   -0.00    0.82    0.04   -0.01    0.98   -0.02
    -0.00    0.84    0.06   -0.01    0.02    0.01    0.01    0.02    0.01    2.00    1.07   -0.01
    -0.00   -0.00    0.84    0.07   -0.01    0.98   -0.02   -0.00    0.81    0.03   -0.01    0.02
     0.01    0.01    0.02    0.00    2.00    1.07   -0.01   -0.00   -0.00    0.82    0.04   -0.01
     0.98   -0.02   -0.00    0.83    0.06   -0.01    0.02    0.01    0.01    0.02    0.01    2.00
     1.07   -0.01   -0.00   -0.00    0.82    0.04   -0.01    0.98   -0.02   -0.00    0.84    0.06
    -0.01    0.02    0.01    0.01    0.02    0.01    1.11   -0.00   -0.00    0.03    0.02    0.02
     1.11   -0.00   -0.00    0.03    0.02    0.02    1.11   -0.00   -0.00    0.02    0.02    0.03
     1.11   -0.00   -0.00    0.03    0.02    0.02    1.11   -0.00   -0.00    0.03    0.02    0.02
     1.11   -0.00   -0.00    0.02    0.02    0.03



 List of all MOs, ordered by energy, with the most significant SFO gross populations
 ===================================================================================

 Each percentage contribution in the table below corresponds to the indicated SFO.
 In general, a SFO may be a linear combination of several Fragment Orbitals on the same,
 or on symmetry-related Fragments. Only the first 'member' of such a combination is
 specified here. A full definition of all SFOs is given in an earlier part of the output.
 The numbering of the SFOs in this table does NOT include the Core Orbitals, and starts
 from one for each symmetry representation, as in the SFO definition list earlier.

       E(eV)  Occ       MO           %     SFO (first member)   E(eV)  Occ   Fragment
 -------------------------------------------------------------------------------------

     -21.394  2.00     7 A         14.60%     2 S             -13.876  2.00     2 C
                                   14.60%     2 S             -13.876  2.00     5 C
                                   14.60%     2 S             -13.876  2.00     4 C
                                   14.60%     2 S             -13.876  2.00     1 C
                                   14.59%     2 S             -13.876  2.00     3 C
                                   14.59%     2 S             -13.876  2.00     6 C
                                    2.37%     1 P:z            -5.403  0.67     4 C
                                    2.37%     1 P:z            -5.403  0.67     1 C
                                    1.83%     1 P:x            -5.403  0.67     6 C
                                    1.83%     1 P:x            -5.403  0.67     3 C
                                    1.73%     1 P:x            -5.403  0.67     5 C
                                    1.73%     1 P:x            -5.403  0.67     2 C
                                    1.24%     1 S              -6.626  1.00     7 H
                                    1.24%     1 S              -6.626  1.00    10 H
                                    1.24%     1 S              -6.626  1.00     8 H
                                    1.24%     1 S              -6.626  1.00    11 H
                                    1.23%     1 S              -6.626  1.00     9 H
                                    1.23%     1 S              -6.626  1.00    12 H
     -18.625  2.00     8 A         22.79%     2 S             -13.876  2.00     3 C
                                   22.79%     2 S             -13.876  2.00     6 C
                                    8.13%     2 S             -13.876  2.00     1 C
                                    8.13%     2 S             -13.876  2.00     4 C
                                    5.60%     1 S              -6.626  1.00     8 H
                                    5.59%     1 S              -6.626  1.00    11 H
                                    3.86%     1 P:z            -5.403  0.67     2 C
                                    3.86%     1 P:z            -5.403  0.67     5 C
                                    3.69%     1 P:x            -5.403  0.67     4 C
                                    3.69%     2 S             -13.876  2.00     5 C
                                    3.69%     1 P:x            -5.403  0.67     1 C
                                    3.69%     2 S             -13.876  2.00     2 C
                                    1.99%     1 S              -6.626  1.00     9 H
                                    1.99%     1 S              -6.626  1.00    12 H
                                   -1.12%     2 P:x             4.709  0.00     4 C
                                   -1.12%     2 P:x             4.709  0.00     1 C
     -18.616  2.00     9 A         19.36%     2 S             -13.876  2.00     2 C
                                   19.36%     2 S             -13.876  2.00     5 C
                                   14.93%     2 S             -13.876  2.00     1 C
                                   14.93%     2 S             -13.876  2.00     4 C
                                    4.79%     1 S              -6.626  1.00     7 H
                                    4.79%     1 S              -6.626  1.00    10 H
                                    4.44%     1 P:z            -5.403  0.67     6 C
                                    4.44%     1 P:z            -5.403  0.67     3 C
                                    3.69%     1 S              -6.626  1.00    12 H
                                    3.68%     1 S              -6.626  1.00     9 H
[...]
 CRIT  8.387621063770839E-002
 iter.  9 V(1) measure  0.8938694968119E+05
        9        delta  0.3533109426062E+00
 CRIT  5.212569128806629E-002
 iter. 10 V(1) measure  0.8938677712307E+05
       10        delta  0.1725581182982E+00
 CRIT  1.925422574551860E-002
 iter. 11 V(1) measure  0.8938682117985E+05
       11        delta  0.4405677979230E-01
 *** convergence reached

    RRIJmat_z_z         
    using first order VWN potential
 
    NOTE: We will NOT use the GGA kernel (input option ALDA was set)
 
 CRIT   1.00000000000000     
 iter.  1 V(1) measure  0.1302446813831E+04
 *** convergence criterion : .1302447E-02
 CRIT   174.688433690557     
 iter.  2 V(1) measure  0.1073522426868E+04
        2        delta  0.2289243869629E+03
 CRIT   63.3619993731076     
 iter.  3 V(1) measure  0.1109147849843E+04
        3        delta  0.3562542297508E+02
 CRIT   18.4342530490803     
 iter.  4 V(1) measure  0.1114719469061E+04
        4        delta  0.5571619218684E+01
 CRIT   4.15103685036300     
 iter.  5 V(1) measure  0.1115617833199E+04
        5        delta  0.8983641379059E+00
 CRIT   1.79959971660042     
 iter.  6 V(1) measure  0.1115718330533E+04
        6        delta  0.1004973336958E+00
 CRIT  0.243427333947996     
 iter.  7 V(1) measure  0.1115716416450E+04
        7        delta  0.1914083057954E-02
 CRIT  5.026695999387190E-002
 iter.  8 V(1) measure  0.1115714753782E+04
        8        delta  0.1662667534447E-02
 CRIT  6.842000817153954E-002
 iter.  9 V(1) measure  0.1115712459409E+04
        9        delta  0.2294373786071E-02
 CRIT  5.128598318558615E-003
 iter. 10 V(1) measure  0.1115712571750E+04
       10        delta  0.1123414747326E-03
 *** convergence reached
 ------------------------------------------
 Convergence acceleration: T
 QUADRUPOLE-QUADRUPOLE POLARIZABILITY     
 Frequency  =  0.1322975682     Hartrees
 Wavelength =   344.4005294     nm
 Wavenumber =   29035.96001     cm^{-1}
 Energy     =   3.600000000     eV
 ------------------------------------------
 QUADRUPOLE-QUADRUPOLE Polarizability tensor:
 
 xx xx     4189.01832412304     
 xx xy    0.133831938270648     
 xx xz    -1.88342770492276     
 xx yy    -4991.69250606016     
 xx yz   -5.015388336185289E-002
 xx zz     802.674181937151     
 xy xx    0.134428166636752     
 xy xy     12591.7296177678     
 xy xz   -0.109517167040226     
 xy yy   -4.298553558680863E-002
 xy yz    -6.84569663674238     
 xy zz   -9.144263099960528E-002
 xz xx    -1.88344867418727     
 xz xy   -0.109545104653109     
 xz xz     1693.52787094463     
 xz yy    0.880866486922136     
 xz yz    2.178526990026272E-002
 xz zz     1.00258218726718     
 yy xx    -4991.83043853904     
 yy xy    0.348927084880605     
 yy xz    0.997322166587152     
 yy yy     9983.83895807813     
 yy yz   -0.185462557399015     
 yy zz    -4992.00851953913     
 yz xx   -5.044041788396214E-002
 yz xy    -6.89110517699629     
 yz xz    2.214588237993163E-002
 yz yy    2.209757818400515E-002
 yz yz     12590.7882414342     
 yz zz    2.834283967289064E-002
 zz xx     802.684599644484     
 zz xy   -9.050531424011451E-002
 zz xz     1.00887656932063     
 zz yy    -4991.97722238613     
 zz yz    2.602671216182095E-002
 zz zz     4189.29262274164     
 
 Imaginary QUADRUPOLE-QUADRUPOLE Polarizability tensor:
 
 xx xx     18.7075358661372     
 xx xy    1.966588191490450E-003
 xx xz   -6.999164191570032E-003
 xx yy    -21.5604518651439     
 xx yz   -1.342381824498480E-003
 xx zz     2.85291599900664     
 xy xx    1.210893105588552E-003
 xy xy     124.987906220705     
 xy xz   -1.154765850786590E-003
 xy yy   -6.731278821472476E-004
 xy yz   -7.910136285648965E-002
 xy zz   -5.377652238373757E-004
 xz xx   -6.822305043672223E-003
 xz xy   -1.288967594375717E-003
 xz xz     7.93216916902154     
 xz yy    2.050315057981745E-003
 xz yz    1.867424903849407E-004
 xz zz    4.771989985714355E-003
 yy xx    -21.5833892145230     
 yy xy    9.216508339507375E-002
 yy xz    1.119208299984879E-002
 yy yy     43.1644074833648     
 yy yz   -4.887821454797926E-002
 yy zz    -21.5810182688422     
 yz xx   -8.009453463309613E-004
 yz xy   -7.950749886092418E-002
 yz xz    1.693725005313290E-004
 yz yy    3.561286609921506E-004
 yz yz     124.933275333830     
 yz zz    4.448166856491698E-004
 zz xx     2.85158422591127     
 zz xy   -2.126176765833185E-003
 zz xz    4.872537251560094E-003
 zz yy    -21.5619235712949     
 zz yz    4.230348663223004E-003
 zz zz     18.7103393453838     



 =======================================================================
 Electrostatic potential at the Nuclei due to electrons and other nuclei
 =======================================================================
  
         Atom                  Potential
         ----                  ---------
     1)   C                  14.76889783
     2)   C                  14.76884831
     3)   C                  14.76870446
     4)   C                  14.76889883
     5)   C                  14.76884712
     6)   C                  14.76869222
     7)   H                   1.10132594
     8)   H                   1.10096389
     9)   H                   1.10157670
    10)   H                   1.10132591
    11)   H                   1.10095253
    12)   H                   1.10157691
 
 
 ========================
 No memory problems found
 ========================
 
 Maximum number of active allocate calls:        1279
 
 *******************************************************************************

                             A D F   E X I T
 NORMAL TERMINATION



 =================
 Timing Statistics
 =================
  
 Total Used :                     CPU=       41.78      System=        0.58     Elapsed=       43.25

 Calls  Section                     ( Mean, Percentage )
 ---------------------------------------------------------------------------------------------------
     3  ><      ................      0.00    0.01             0.00    0.00             0.00    0.01
     1  INIT    ................      0.56    1.35             0.02    2.65             0.58    1.35
     1  GEOMET  ................      0.04    0.10             0.00    0.74             0.05    0.11
     1  FRAGM   ................      0.02    0.05             0.01    2.05             0.03    0.08
     1  INPUTA  ................      0.00    0.01             0.00    0.00             0.00    0.01
     1  ATDEN   ................      0.00    0.00             0.00    0.68             0.00    0.01
     1  MAINSY  ................      0.04    0.09             0.00    0.03             0.04    0.09
     1  SYMFIT  ................      0.01    0.02             0.00    0.00             0.01    0.02
     1  CORORT  ................      0.00    0.00             0.00    0.00             0.00    0.00
     1  SYMORB  ................      0.00    0.01             0.00    0.00             0.00    0.01
     1  CLSMAT  ................      0.01    0.04             0.00    0.00             0.01    0.03
     1  ORTHON  ................      0.01    0.02             0.01    1.50             0.02    0.04
     1  GENPT   ................      0.11    0.27             0.01    1.93             0.13    0.29
     1  PTBAS   ................      0.09    0.22             0.00    0.00             0.09    0.21
    13  FOCKY   ................      0.29    8.99             0.00    7.59             0.30    8.94
    13  FOCKTR  ................      0.00    0.08             0.00    1.12             0.00    0.09
    13  SDIIS   ................      0.01    0.16             0.00    1.61             0.01    0.18
     1  COREPS  ................      0.21    0.50             0.01    1.36             0.23    0.54
     1  TOTEN   ................      0.95    2.27             0.02    3.45             1.02    2.37
     1  POPAN   ................      0.01    0.02             0.00    0.01             0.01    0.02
     1  DEBYE   ................      0.01    0.03             0.00    0.66             0.02    0.04
     1  INPUTE  ................      0.00    0.00             0.00    0.04             0.00    0.00
     1  SYMORE  ................      0.00    0.00             0.00    0.00             0.00    0.00
     1  METS    ................      0.00    0.00             0.00    0.00             0.00    0.00
     1  CETS    ................      0.01    0.02             0.00    0.00             0.01    0.02
     1  ELNRGY  ................      0.01    0.03             0.00    0.00             0.01    0.03
     1  POPUL   ................      0.01    0.03             0.00    0.67             0.02    0.05
     1  AORESPONSE .............     35.76   85.61             0.42   73.24            36.92   85.37
     1  EXIT PROCEDURE .........      0.03    0.06             0.00    0.67             0.03    0.07


 Currently Open Files (EXIT00)
 ====================

 Unit    Access Format  Status   Type       Ident (file)
 -------------------------------------------------------
   3      SEQ    FORM   TRANSP  NORMAL      LOGFILE
                                          ( logfile )

 ***************************************************************************************************
 (LOGFILE)
 <Sep29-2020> <15:28:08>  ADF 2019  RunTime: Sep29-2020 15:28:08  Nodes: 1  Procs: 1
 <Sep29-2020> <15:28:08>  Hydrogen (TZP)
 <Sep29-2020> <15:28:08>  RunType   : CREATE
 <Sep29-2020> <15:28:08>  Net Charge: 0 (Nuclei minus Electrons)
 <Sep29-2020> <15:28:08>  Symmetry  : ATOM
  Coordinates
    Atom         X           Y           Z   (Angstrom)
    1.H         0.000000    0.000000    0.000000
 <Sep29-2020> <15:28:08>  >>>> CORORT
 <Sep29-2020> <15:28:08>  >>>> CLSMAT
 <Sep29-2020> <15:28:08>  >>>> ORTHON
 <Sep29-2020> <15:28:08>  >>>> GENPT
 <Sep29-2020> <15:28:08>  Block Length=  64
 <Sep29-2020> <15:28:08>  >>>> PTBAS
 <Sep29-2020> <15:28:08>  >>>> CYCLE
 <Sep29-2020> <15:28:08>              |Error|         MaxErr       Wt(A-DIIS)
 <Sep29-2020> <15:28:08>      1      0.00000000      0.00000000
 <Sep29-2020> <15:28:08>      2      0.03052909      0.02968459
 <Sep29-2020> <15:28:09>      3      0.00718138      0.00670742    100.0
 <Sep29-2020> <15:28:09>      4      0.00117303      0.00114116      0.1
 <Sep29-2020> <15:28:09>      5      0.00002783      0.00002380      0.0
 <Sep29-2020> <15:28:09>      6      0.00000153      0.00000130      0.0
 <Sep29-2020> <15:28:09>      7      0.00000000      0.00000000      0.0
 <Sep29-2020> <15:28:09>  SCF converged
 <Sep29-2020> <15:28:09>      8      0.00000000      0.00000000      0.0
 <Sep29-2020> <15:28:09>  >>>> POPAN
 <Sep29-2020> <15:28:09>  >>>> DEBYE
 <Sep29-2020> <15:28:09>  NORMAL TERMINATION
 <Sep29-2020> <15:28:09>  END
 <Sep29-2020> <15:28:09>  ADF 2019  RunTime: Sep29-2020 15:28:09  Nodes: 1  Procs: 1
 <Sep29-2020> <15:28:09>  Carbon (TZP)
 <Sep29-2020> <15:28:09>  RunType   : CREATE
 <Sep29-2020> <15:28:09>  Net Charge: 0 (Nuclei minus Electrons)
 <Sep29-2020> <15:28:09>  Symmetry  : ATOM
  Coordinates
    Atom         X           Y           Z   (Angstrom)
    1.C         0.000000    0.000000    0.000000
 <Sep29-2020> <15:28:09>  >>>> CORORT
 <Sep29-2020> <15:28:09>  >>>> CLSMAT
 <Sep29-2020> <15:28:09>  >>>> ORTHON
 <Sep29-2020> <15:28:09>  >>>> GENPT
 <Sep29-2020> <15:28:09>  Block Length=  72
 <Sep29-2020> <15:28:09>  >>>> PTBAS
 <Sep29-2020> <15:28:09>  >>>> CYCLE
 <Sep29-2020> <15:28:09>              |Error|         MaxErr       Wt(A-DIIS)
 <Sep29-2020> <15:28:09>      1      0.00000000      0.00000000
 <Sep29-2020> <15:28:09>      2      4.48324754      3.31969244    100.0
 <Sep29-2020> <15:28:09>      3      1.61537707      1.30410194    100.0
 <Sep29-2020> <15:28:09>      4      0.72706284      0.59053131    100.0
 <Sep29-2020> <15:28:09>      5      0.40898688      0.33263800    100.0
 <Sep29-2020> <15:28:09>      6      0.13548919      0.10594416    100.0
 <Sep29-2020> <15:28:09>      7      0.11406432      0.09088019     90.8
 <Sep29-2020> <15:28:09>      8      0.01170325      0.00926551      8.3
 <Sep29-2020> <15:28:10>      9      0.00078015      0.00061791      0.0
 <Sep29-2020> <15:28:10>     10      0.00000178      0.00000107      0.0
 <Sep29-2020> <15:28:10>     11      0.00000024      0.00000019      0.0
 <Sep29-2020> <15:28:10>     12      0.00000000      0.00000000      0.0
 <Sep29-2020> <15:28:10>  SCF converged
 <Sep29-2020> <15:28:10>     13      0.00000000      0.00000000      0.0
 <Sep29-2020> <15:28:10>  >>>> POPAN
 <Sep29-2020> <15:28:10>  >>>> DEBYE
 <Sep29-2020> <15:28:10>  NORMAL TERMINATION
 <Sep29-2020> <15:28:10>  END
 <Sep29-2020> <15:28:10>  ADF 2019  RunTime: Sep29-2020 15:28:10  Nodes: 1  Procs: 6
 <Sep29-2020> <15:28:11>  None
 <Sep29-2020> <15:28:11>  RunType   : SINGLE POINT
 <Sep29-2020> <15:28:11>  Net Charge: 0 (Nuclei minus Electrons)
 <Sep29-2020> <15:28:11>  Symmetry  : NOSYM
 <Sep29-2020> <15:28:11>  >>>> FRAGM
  Coordinates
    Atom         X           Y           Z   (Angstrom)
    1.C         0.030515    4.000000   -1.398611
    2.C        -1.195789    4.000000   -0.724099
    3.C        -1.227927    4.000000    0.674853
    4.C        -0.030515    4.000000    1.398611
    5.C         1.195789    4.000000    0.724099
    6.C         1.227927    4.000000   -0.674853
    7.H        -2.128376    4.000000   -1.291146
    8.H        -2.184824    4.000000    1.200038
    9.H        -0.051789    4.000000    2.490153
   10.H         2.128376    4.000000    1.291146
   11.H         2.184924    4.000000   -1.200038
   12.H         0.051694    4.000000   -2.490153
 <Sep29-2020> <15:28:11>  >>>> CORORT
 <Sep29-2020> <15:28:11>  >>>> CLSMAT
 <Sep29-2020> <15:28:11>  >>>> ORTHON
 <Sep29-2020> <15:28:11>  >>>> GENPT
 <Sep29-2020> <15:28:11>  Block Length= 128
 <Sep29-2020> <15:28:11>  >>>> PTBAS
 <Sep29-2020> <15:28:11>  >>>> CYCLE
 <Sep29-2020> <15:28:11>              |Error|         MaxErr       Wt(A-DIIS)
 <Sep29-2020> <15:28:11>      1      5.99092844      0.98036457
 <Sep29-2020> <15:28:12>      2      0.89231567      0.18710475    100.0
 <Sep29-2020> <15:28:12>      3      0.52144899      0.10260900    100.0
 <Sep29-2020> <15:28:12>      4      0.74324195      0.17265392    100.0
 <Sep29-2020> <15:28:13>      5      0.07622309      0.01073006      9.8
 <Sep29-2020> <15:28:13>      6      0.01071953      0.00173302      0.7
 <Sep29-2020> <15:28:13>      7      0.00127505      0.00032688      0.0
 <Sep29-2020> <15:28:14>      8      0.00082087      0.00019883      0.0
 <Sep29-2020> <15:28:14>      9      0.00007779      0.00001804      0.0
 <Sep29-2020> <15:28:14>     10      0.00000787      0.00000195      0.0
 <Sep29-2020> <15:28:14>     11      0.00000800      0.00000200      0.0
 <Sep29-2020> <15:28:15>     12      0.00000008      0.00000002      0.0
 <Sep29-2020> <15:28:15>  SCF converged
 <Sep29-2020> <15:28:15>     13      0.00000008      0.00000002      0.0
 <Sep29-2020> <15:28:15>  >>>> TOTEN
 <Sep29-2020> <15:28:16>  >>>> POPAN
 <Sep29-2020> <15:28:16>  >>>> DEBYE
 <Sep29-2020> <15:28:16>  >>>> AMETS
 <Sep29-2020> <15:28:16>  >>>> POPUL
 <Sep29-2020> <15:28:17>     1 V(1)  0.1844180E+04
 <Sep29-2020> <15:28:17>     2 V(1)  0.1574392E+04
 <Sep29-2020> <15:28:18>     3 V(1)  0.1557081E+04
 <Sep29-2020> <15:28:18>     4 V(1)  0.1563633E+04
 <Sep29-2020> <15:28:18>     5 V(1)  0.1565430E+04
 <Sep29-2020> <15:28:19>     6 V(1)  0.1565547E+04
 <Sep29-2020> <15:28:19>     7 V(1)  0.1565497E+04
 <Sep29-2020> <15:28:19>     8 V(1)  0.1565414E+04
 <Sep29-2020> <15:28:20>     9 V(1)  0.1565410E+04
 <Sep29-2020> <15:28:20>    10 V(1)  0.1565407E+04
 <Sep29-2020> <15:28:21>    11 V(1)  0.1565406E+04
 <Sep29-2020> <15:28:21>   convergence reached
 <Sep29-2020> <15:28:21>     1 V(1)  0.2536251E+02
 <Sep29-2020> <15:28:21>     2 V(1)  0.2328917E+02
 <Sep29-2020> <15:28:22>     3 V(1)  0.2328382E+02
 <Sep29-2020> <15:28:22>     4 V(1)  0.2328308E+02
 <Sep29-2020> <15:28:23>     5 V(1)  0.2328296E+02
 <Sep29-2020> <15:28:23>     6 V(1)  0.2328299E+02
 <Sep29-2020> <15:28:23>     7 V(1)  0.2328299E+02
 <Sep29-2020> <15:28:23>   convergence reached
 <Sep29-2020> <15:28:24>     1 V(1)  0.1841816E+04
 <Sep29-2020> <15:28:24>     2 V(1)  0.1572259E+04
 <Sep29-2020> <15:28:25>     3 V(1)  0.1555002E+04
 <Sep29-2020> <15:28:25>     4 V(1)  0.1561544E+04
 <Sep29-2020> <15:28:25>     5 V(1)  0.1563451E+04
 <Sep29-2020> <15:28:26>     6 V(1)  0.1563465E+04
 <Sep29-2020> <15:28:26>     7 V(1)  0.1563334E+04
 <Sep29-2020> <15:28:27>     8 V(1)  0.1563322E+04
 <Sep29-2020> <15:28:27>     9 V(1)  0.1563318E+04
 <Sep29-2020> <15:28:27>    10 V(1)  0.1563315E+04
 <Sep29-2020> <15:28:28>    11 V(1)  0.1563315E+04
 <Sep29-2020> <15:28:28>   convergence reached
 <Sep29-2020> <15:28:28>     1 V(1)  0.1302850E+04
 <Sep29-2020> <15:28:29>     2 V(1)  0.1073744E+04
 <Sep29-2020> <15:28:29>     3 V(1)  0.1109383E+04
 <Sep29-2020> <15:28:30>     4 V(1)  0.1114957E+04
 <Sep29-2020> <15:28:30>     5 V(1)  0.1115851E+04
 <Sep29-2020> <15:28:31>     6 V(1)  0.1115950E+04
 <Sep29-2020> <15:28:31>     7 V(1)  0.1115951E+04
 <Sep29-2020> <15:28:31>     8 V(1)  0.1115949E+04
 <Sep29-2020> <15:28:32>     9 V(1)  0.1115946E+04
 <Sep29-2020> <15:28:32>    10 V(1)  0.1115946E+04
 <Sep29-2020> <15:28:32>   convergence reached
 <Sep29-2020> <15:28:33>     1 V(1)  0.1057953E+06
 <Sep29-2020> <15:28:33>     2 V(1)  0.8966901E+05
 <Sep29-2020> <15:28:34>     3 V(1)  0.8877303E+05
 <Sep29-2020> <15:28:34>     4 V(1)  0.8939916E+05
 <Sep29-2020> <15:28:35>     5 V(1)  0.8950964E+05
 <Sep29-2020> <15:28:35>     6 V(1)  0.8951539E+05
 <Sep29-2020> <15:28:36>     7 V(1)  0.8951179E+05
 <Sep29-2020> <15:28:36>     8 V(1)  0.8950677E+05
 <Sep29-2020> <15:28:36>     9 V(1)  0.8950651E+05
 <Sep29-2020> <15:28:37>    10 V(1)  0.8950627E+05
 <Sep29-2020> <15:28:37>    11 V(1)  0.8950624E+05
 <Sep29-2020> <15:28:37>   convergence reached
 <Sep29-2020> <15:28:38>     1 V(1)  0.6150226E+03
 <Sep29-2020> <15:28:38>     2 V(1)  0.4702274E+03
 <Sep29-2020> <15:28:38>     3 V(1)  0.4842692E+03
 <Sep29-2020> <15:28:39>     4 V(1)  0.4854475E+03
 <Sep29-2020> <15:28:39>     5 V(1)  0.4859716E+03
 <Sep29-2020> <15:28:40>     6 V(1)  0.4859793E+03
 <Sep29-2020> <15:28:40>     7 V(1)  0.4859811E+03
 <Sep29-2020> <15:28:40>     8 V(1)  0.4859800E+03
 <Sep29-2020> <15:28:41>     9 V(1)  0.4859791E+03
 <Sep29-2020> <15:28:41>    10 V(1)  0.4859788E+03
 <Sep29-2020> <15:28:41>   convergence reached
 <Sep29-2020> <15:28:42>     1 V(1)  0.2748756E+04
 <Sep29-2020> <15:28:42>     2 V(1)  0.2507411E+04
 <Sep29-2020> <15:28:43>     3 V(1)  0.2520148E+04
 <Sep29-2020> <15:28:43>     4 V(1)  0.2520573E+04
 <Sep29-2020> <15:28:44>     5 V(1)  0.2520573E+04
 <Sep29-2020> <15:28:44>   convergence reached
 <Sep29-2020> <15:28:44>     1 V(1)  0.1056601E+06
 <Sep29-2020> <15:28:45>     2 V(1)  0.8954754E+05
 <Sep29-2020> <15:28:45>     3 V(1)  0.8865457E+05
 <Sep29-2020> <15:28:46>     4 V(1)  0.8927990E+05
 <Sep29-2020> <15:28:46>     5 V(1)  0.8939617E+05
 <Sep29-2020> <15:28:46>     6 V(1)  0.8939641E+05
 <Sep29-2020> <15:28:47>     7 V(1)  0.8938801E+05
 <Sep29-2020> <15:28:47>     8 V(1)  0.8938730E+05
 <Sep29-2020> <15:28:48>     9 V(1)  0.8938695E+05
 <Sep29-2020> <15:28:48>    10 V(1)  0.8938678E+05
 <Sep29-2020> <15:28:49>    11 V(1)  0.8938682E+05
 <Sep29-2020> <15:28:49>   convergence reached
 <Sep29-2020> <15:28:49>     1 V(1)  0.1302447E+04
 <Sep29-2020> <15:28:50>     2 V(1)  0.1073522E+04
 <Sep29-2020> <15:28:50>     3 V(1)  0.1109148E+04
 <Sep29-2020> <15:28:51>     4 V(1)  0.1114719E+04
 <Sep29-2020> <15:28:51>     5 V(1)  0.1115618E+04
 <Sep29-2020> <15:28:51>     6 V(1)  0.1115718E+04
 <Sep29-2020> <15:28:52>     7 V(1)  0.1115716E+04
 <Sep29-2020> <15:28:52>     8 V(1)  0.1115715E+04
 <Sep29-2020> <15:28:53>     9 V(1)  0.1115712E+04
 <Sep29-2020> <15:28:53>    10 V(1)  0.1115713E+04
 <Sep29-2020> <15:28:53>   convergence reached
 <Sep29-2020> <15:28:53>  NORMAL TERMINATION
 <Sep29-2020> <15:28:53>  END
