

 Parallel Execution: Process Information
 ==============================================================================
 Rank   Node Name                              NodeID   MyNodeRank  NodeMaster
    0   magnesium.science.psu.edu                 0          0          0
    1   magnesium.science.psu.edu                 0          1         -1
    2   magnesium.science.psu.edu                 0          2         -1
    3   magnesium.science.psu.edu                 0          3         -1
    4   magnesium.science.psu.edu                 0          4         -1
    5   magnesium.science.psu.edu                 0          5         -1
 ==============================================================================


May use up to 7495MB of RAM as shared memory on node 0
 
TITLE None

ATOMS
1  C     0.02985342    4.00000000   -1.39859471
2  C    -1.19707936    4.00000000   -0.72517832
3  C    -1.22677407    4.00000000    0.67357303
4  C    -0.02954129    4.00000000    1.39860529
5  C     1.19692064    4.00000000    0.72542697
6  C     1.22662593    4.00000000   -0.67383226
7  H    -2.13120570    4.00000000   -1.28969068
8  H    -2.18413163    4.00000000    1.19792719
9  H    -0.05081506    4.00000000    2.49014761
10 H     2.12896785    4.00000000    1.29335694
11 H     2.18215779    4.00000000   -1.20168868
12 H     0.05505320    4.00000000   -2.49005239
END

XC
 gga BP86
end

symmetry nosym

aoresponse
 alda
 frequency 1 3.6 eV
 lifetime 0.0037
 El_Dipole_El_Dipole
 El_Dipole_El_Quadrupole
 El_Quadrupole_El_Quadrupole
 Traceless
end

Fragments
H t21.H
C t21.C
End

 *******************************************************************************
 *                                                                             *
 *  -------------------------------------                                      *
 *   Amsterdam Density Functional  (ADF)         2019                          *
 *  -------------------------------------                                      *
 *                                               r75281 2019-06-03             *
 *                                                                             *
 *                                                                             *
 *                              =================                              *
 *                              |               |                              *
 *                              |     A D F     |                              *
 *                              |               |                              *
 *                              =================                              *
 *                                                                             *
 *                                                                             *
 *   Online information and documentation:  https://www.scm.com/support/       *
 *   E-mail:  support@scm.com   info@scm.com                                   *
 *                                                                             *
 *   Scientific publications using ADF results must be properly referenced     *
 *   See the User Manuals (or the web site) for recommended citations          *
 *   The terms and conditions of the End User License Agreement apply to       *
 *   the use of ADF, https://www.scm.com/license-terms/                        *
 *                                                                             *
 **********************  x86_64_linux_intel / intelmpi  ************************
 
 Licensed to: Prof. Lasse Jensen / Penn State University / University Park / PA  / USA
 SCM User ID: u8493
  
 ADF 2019  RunTime: Sep29-2020 15:15:22  Nodes: 1  Procs: 6

 Temporary files are created in /scratch/kid_0.900187321


Communication costs MPI_COMM_WORLD:      0.640 usec per message,   0.0074 usec per 8-byte item
Communication costs for intra-node:      0.602 usec per message,   0.0073 usec per 8-byte item

 None



 ===========================
 A T T A C H E D   F I L E S
 ===========================
  



 ===============================
 M O D E L   P A R A M E T E R S
 ===============================
  
 DENSITY FUNCTIONAL POTENTIAL (scf)
    LDA:                               VWN                                      
    Gradient Corrections:              Becke88 Perdew86                        == Not Default ==

 SPIN  (restricted / unrestr.)
    Molecule:                          Restricted                               
    Fragments:                         Restricted                               

 OTHER ASPECTS
    Relativistic Corrections:          ---                                      

    Nuclear Charge Density Model:      Point Charge Nuclei                      
    Core Treatment:                    Frozen Orbital(s)                        

    Hyperfine or Zeeman Interaction:   ---                                      


 Fragment File(s)
 ----------------
 C:
         file : t21.C
         jobid: ADF 2019  RunTime: Sep29-2020 15:15:21  Nodes: 1  Procs: 1
         title: Carbon (TZP)
 H:
         file : t21.H
         jobid: ADF 2019  RunTime: Sep29-2020 15:15:20  Nodes: 1  Procs: 1
         title: Hydrogen (TZP)



                                        ************************************
                                        *  R U N   T Y P E : SINGLE POINT  *
                                        ************************************
  



 ===============
 G E O M E T R Y  ***  Planar Molecule  ***
 ===============
  

 ATOMS
 =====                            X Y Z                    CHARGE
                                (Angstrom)             Nucl     +Core       At.Mass
                       --------------------------    ----------------       -------
    1  C               0.0299    4.0000   -1.3986      6.00      6.00       12.0000
    2  C              -1.1971    4.0000   -0.7252      6.00      6.00       12.0000
    3  C              -1.2268    4.0000    0.6736      6.00      6.00       12.0000
    4  C              -0.0295    4.0000    1.3986      6.00      6.00       12.0000
    5  C               1.1969    4.0000    0.7254      6.00      6.00       12.0000
    6  C               1.2266    4.0000   -0.6738      6.00      6.00       12.0000
    7  H              -2.1312    4.0000   -1.2897      1.00      1.00        1.0078
    8  H              -2.1841    4.0000    1.1979      1.00      1.00        1.0078
    9  H              -0.0508    4.0000    2.4901      1.00      1.00        1.0078
   10  H               2.1290    4.0000    1.2934      1.00      1.00        1.0078
   11  H               2.1822    4.0000   -1.2017      1.00      1.00        1.0078
   12  H               0.0551    4.0000   -2.4901      1.00      1.00        1.0078


 FRAGMENTS
 =========                                     Atoms in this Fragment     Cart. coord.s (Angstrom)
                                               -------------------------------------------------------
    1  C                                                 1  C            0.0299    4.0000   -1.3986
    2  C                                                 2  C           -1.1971    4.0000   -0.7252
    3  C                                                 3  C           -1.2268    4.0000    0.6736
    4  C                                                 4  C           -0.0295    4.0000    1.3986
    5  C                                                 5  C            1.1969    4.0000    0.7254
    6  C                                                 6  C            1.2266    4.0000   -0.6738
    7  H                                                 7  H           -2.1312    4.0000   -1.2897
    8  H                                                 8  H           -2.1841    4.0000    1.1979
    9  H                                                 9  H           -0.0508    4.0000    2.4901
   10  H                                                10  H            2.1290    4.0000    1.2934
   11  H                                                11  H            2.1822    4.0000   -1.2017
   12  H                                                12  H            0.0551    4.0000   -2.4901


 Interatomic Distance Matrix (Angstrom)
 --------------------------------------

   1)     0.000
   2)     1.400   0.000
   3)     2.423   1.399   0.000
   4)     2.798   2.424   1.400   0.000
   5)     2.424   2.799   2.424   1.399   0.000
   6)     1.399   2.424   2.799   2.423   1.400   0.000
   7)     2.164   1.091   2.162   3.412   3.891   3.414   0.000
   8)     3.412   2.162   1.092   2.164   3.414   3.891   2.488   0.000
   9)     3.890   3.414   2.164   1.092   2.161   3.412   4.315   2.494   0.000
  10)     3.414   3.891   3.412   2.161   1.091   2.164   4.982   4.314   2.487   0.000
  11)     2.161   3.413   3.891   3.414   2.164   1.092   4.314   4.982   4.315   2.496
          0.000
  12)     1.092   2.164   3.413   3.890   3.412   2.161   2.494   4.315   4.981   4.315
          2.487   0.000

 Min. Distance =    1.0914
 Max. Distance =    4.9822



 =====================================
 S Y M M E T R Y ,   E L E C T R O N S
 =====================================
  
 Symmetry: NOSYM

 Irreducible Representations, including subspecies
 -------------------------------------------------
 A


 Configuration of Valence Electrons
 ==================================
 ( determined in the SCF procedure )

 Total:   42

 Net Charge: 0 (Nuclei minus Electrons)

 Aufbau principle for MO occupations will be applied through SCF cycle no.     150
 Thereafter, the program will assign electrons to MOs that are spatially
 similar to the occupied MOs in a "reference" cycle ("KeepOrbitals").
 The reference cycle is always the PREVIOUS cycle: it will evolve with
 the SCF procedure.
1
 ***************************************************************************************************



                                      ****************************************
                                      *  B U I L D : (Fragments, Functions)  *
                                      ****************************************
  



 =======
 S F O s  ***  (Symmetrized Fragment Orbitals)  ***
 =======
  
 SFOs are linear combinations of (valence) Fragment Orbitals (FOs), such that the SFOs transform as the
 irreducible representations of the (molecular) symmetry group. Each SFO is therefore characterized by
 an irrep of the molecule and by a few (or only one) generating FOs.
 The SFOs constitute a symmetry-adapted basis for the Fock matrix. The MO eigenvector coefficients in
 this basis provide a direct interpretation of the MOs in terms of Frontier Orbital Theory.

 The SFOs are combined with auxiliary Core Functions (CFs) to ensure orthogonalization on the (frozen)
 Core Orbitals (COs). The Core-orthogonalized SFOs (CSFOs) constitute the true Fock basis.

 The FOs, and hence also the (C)SFOs are combinations of the elementary basis functions (BAS). The basis
 functions that participate in the description of the SFOs depend on the irrep. The indices of the
 involved functions are printed below for each irrep.
 (The complete list of primitive basis functions is printed in another section)

 Total nr. of (C)SFOs (summation over all irreps) :   150

 NOTE: a (C)SFO that is defined as a combination of more than one FO is usually NOT normalized.



                                       === A ===
 Nr. of SFOs :  150
 Cartesian basis functions that participate in this irrep (total number =   156) :
      1     2     3     4     5     6     9    12     7    10
     13     8    11    14    15    16    17    18    19    20
     21    22    23    24    25    26    29    32    27    30
     33    28    31    34    35    36    37    38    39    40
     41    42    43    44    45    46    49    52    47    50
     53    48    51    54    55    56    57    58    59    60
     61    62    63    64    65    66    69    72    67    70
     73    68    71    74    75    76    77    78    79    80
     81    82    83    84    85    86    89    92    87    90
     93    88    91    94    95    96    97    98    99   100
    101   102   103   104   105   106   109   112   107   110
    113   108   111   114   115   116   117   118   119   120
    121   122   123   124   125   126   127   128   129   130
    131   132   133   134   135   136   137   138   139   140
    141   142   143   144   145   146   147   148   149   150
    151   152   153   154   155   156

    SFO  (index         Fragment          Generating    Expansion in Fragment Orbitals
  indx  incl.CFs)   Occup   Orb.Energy   FragmentType  Coeff.   Orbital     on Fragment
 --------------------------------------------------------------------------------------
     1       1      2.000     -10.058 au  C             1.00      1 S               1
                        (    -273.681 eV)
     2       2      2.000      -0.510 au  C             1.00      2 S               1
                        (     -13.876 eV)
     3       3       --         0.371 au  C             1.00      3 S               1
                        (      10.091 eV)
     4       4       --         5.428 au  C             1.00      4 S               1
                        (     147.707 eV)
     5       5       --        50.181 au  C             1.00      5 S               1
                        (    1365.486 eV)
     6       6      0.667      -0.199 au  C             1.00      1 P:x             1
                        (      -5.403 eV)
     7       7       --         0.173 au  C             1.00      2 P:x             1
                        (       4.709 eV)
     8       8       --         2.026 au  C             1.00      3 P:x             1
                        (      55.143 eV)
     9       9      0.667      -0.199 au  C             1.00      1 P:y             1
                        (      -5.403 eV)
    10      10       --         0.173 au  C             1.00      2 P:y             1
                        (       4.709 eV)
    11      11       --         2.026 au  C             1.00      3 P:y             1
                        (      55.143 eV)
    12      12      0.667      -0.199 au  C             1.00      1 P:z             1
                        (      -5.403 eV)
    13      13       --         0.173 au  C             1.00      2 P:z             1
                        (       4.709 eV)
    14      14       --         2.026 au  C             1.00      3 P:z             1
                        (      55.143 eV)
    15      15       --         1.232 au  C             1.00      1 D:z2            1
                        (      33.528 eV)
    16      16       --         1.232 au  C             1.00      1 D:x2-y2         1
                        (      33.528 eV)
    17      17       --         1.232 au  C             1.00      1 D:xy            1
                        (      33.528 eV)
    18      18       --         1.232 au  C             1.00      1 D:xz            1
                        (      33.528 eV)
    19      19       --         1.232 au  C             1.00      1 D:yz            1
                        (      33.528 eV)
    20      20      2.000     -10.058 au  C             1.00      1 S               2
                        (    -273.681 eV)
    21      21      2.000      -0.510 au  C             1.00      2 S               2
                        (     -13.876 eV)
    22      22       --         0.371 au  C             1.00      3 S               2
                        (      10.091 eV)
    23      23       --         5.428 au  C             1.00      4 S               2
                        (     147.707 eV)
    24      24       --        50.181 au  C             1.00      5 S               2
                        (    1365.486 eV)
    25      25      0.667      -0.199 au  C             1.00      1 P:x             2
                        (      -5.403 eV)
    26      26       --         0.173 au  C             1.00      2 P:x             2
                        (       4.709 eV)
    27      27       --         2.026 au  C             1.00      3 P:x             2
                        (      55.143 eV)
    28      28      0.667      -0.199 au  C             1.00      1 P:y             2
                        (      -5.403 eV)
    29      29       --         0.173 au  C             1.00      2 P:y             2
                        (       4.709 eV)
    30      30       --         2.026 au  C             1.00      3 P:y             2
                        (      55.143 eV)
    31      31      0.667      -0.199 au  C             1.00      1 P:z             2
                        (      -5.403 eV)
    32      32       --         0.173 au  C             1.00      2 P:z             2
                        (       4.709 eV)
    33      33       --         2.026 au  C             1.00      3 P:z             2
                        (      55.143 eV)
    34      34       --         1.232 au  C             1.00      1 D:z2            2
                        (      33.528 eV)
    35      35       --         1.232 au  C             1.00      1 D:x2-y2         2
                        (      33.528 eV)
    36      36       --         1.232 au  C             1.00      1 D:xy            2
                        (      33.528 eV)
    37      37       --         1.232 au  C             1.00      1 D:xz            2
                        (      33.528 eV)
    38      38       --         1.232 au  C             1.00      1 D:yz            2
                        (      33.528 eV)
    39      39      2.000     -10.058 au  C             1.00      1 S               3
                        (    -273.681 eV)
    40      40      2.000      -0.510 au  C             1.00      2 S               3
                        (     -13.876 eV)
    41      41       --         0.371 au  C             1.00      3 S               3
                        (      10.091 eV)
    42      42       --         5.428 au  C             1.00      4 S               3
                        (     147.707 eV)
    43      43       --        50.181 au  C             1.00      5 S               3
                        (    1365.486 eV)
    44      44      0.667      -0.199 au  C             1.00      1 P:x             3
                        (      -5.403 eV)
    45      45       --         0.173 au  C             1.00      2 P:x             3
                        (       4.709 eV)
    46      46       --         2.026 au  C             1.00      3 P:x             3
                        (      55.143 eV)
    47      47      0.667      -0.199 au  C             1.00      1 P:y             3
                        (      -5.403 eV)
    48      48       --         0.173 au  C             1.00      2 P:y             3
                        (       4.709 eV)
    49      49       --         2.026 au  C             1.00      3 P:y             3
                        (      55.143 eV)
    50      50      0.667      -0.199 au  C             1.00      1 P:z             3
                        (      -5.403 eV)
    51      51       --         0.173 au  C             1.00      2 P:z             3
                        (       4.709 eV)
    52      52       --         2.026 au  C             1.00      3 P:z             3
                        (      55.143 eV)
    53      53       --         1.232 au  C             1.00      1 D:z2            3
                        (      33.528 eV)
    54      54       --         1.232 au  C             1.00      1 D:x2-y2         3
                        (      33.528 eV)
    55      55       --         1.232 au  C             1.00      1 D:xy            3
                        (      33.528 eV)
    56      56       --         1.232 au  C             1.00      1 D:xz            3
                        (      33.528 eV)
    57      57       --         1.232 au  C             1.00      1 D:yz            3
                        (      33.528 eV)
    58      58      2.000     -10.058 au  C             1.00      1 S               4
                        (    -273.681 eV)
    59      59      2.000      -0.510 au  C             1.00      2 S               4
                        (     -13.876 eV)
    60      60       --         0.371 au  C             1.00      3 S               4
                        (      10.091 eV)
    61      61       --         5.428 au  C             1.00      4 S               4
                        (     147.707 eV)
    62      62       --        50.181 au  C             1.00      5 S               4
                        (    1365.486 eV)
    63      63      0.667      -0.199 au  C             1.00      1 P:x             4
                        (      -5.403 eV)
    64      64       --         0.173 au  C             1.00      2 P:x             4
                        (       4.709 eV)
    65      65       --         2.026 au  C             1.00      3 P:x             4
                        (      55.143 eV)
    66      66      0.667      -0.199 au  C             1.00      1 P:y             4
                        (      -5.403 eV)
    67      67       --         0.173 au  C             1.00      2 P:y             4
                        (       4.709 eV)
    68      68       --         2.026 au  C             1.00      3 P:y             4
                        (      55.143 eV)
    69      69      0.667      -0.199 au  C             1.00      1 P:z             4
                        (      -5.403 eV)
    70      70       --         0.173 au  C             1.00      2 P:z             4
                        (       4.709 eV)
    71      71       --         2.026 au  C             1.00      3 P:z             4
                        (      55.143 eV)
    72      72       --         1.232 au  C             1.00      1 D:z2            4
                        (      33.528 eV)
    73      73       --         1.232 au  C             1.00      1 D:x2-y2         4
                        (      33.528 eV)
    74      74       --         1.232 au  C             1.00      1 D:xy            4
                        (      33.528 eV)
    75      75       --         1.232 au  C             1.00      1 D:xz            4
                        (      33.528 eV)
    76      76       --         1.232 au  C             1.00      1 D:yz            4
                        (      33.528 eV)
    77      77      2.000     -10.058 au  C             1.00      1 S               5
                        (    -273.681 eV)
    78      78      2.000      -0.510 au  C             1.00      2 S               5
                        (     -13.876 eV)
    79      79       --         0.371 au  C             1.00      3 S               5
                        (      10.091 eV)
    80      80       --         5.428 au  C             1.00      4 S               5
                        (     147.707 eV)
    81      81       --        50.181 au  C             1.00      5 S               5
                        (    1365.486 eV)
    82      82      0.667      -0.199 au  C             1.00      1 P:x             5
                        (      -5.403 eV)
    83      83       --         0.173 au  C             1.00      2 P:x             5
                        (       4.709 eV)
    84      84       --         2.026 au  C             1.00      3 P:x             5
                        (      55.143 eV)
    85      85      0.667      -0.199 au  C             1.00      1 P:y             5
                        (      -5.403 eV)
    86      86       --         0.173 au  C             1.00      2 P:y             5
                        (       4.709 eV)
    87      87       --         2.026 au  C             1.00      3 P:y             5
                        (      55.143 eV)
    88      88      0.667      -0.199 au  C             1.00      1 P:z             5
                        (      -5.403 eV)
    89      89       --         0.173 au  C             1.00      2 P:z             5
                        (       4.709 eV)
    90      90       --         2.026 au  C             1.00      3 P:z             5
                        (      55.143 eV)
    91      91       --         1.232 au  C             1.00      1 D:z2            5
                        (      33.528 eV)
    92      92       --         1.232 au  C             1.00      1 D:x2-y2         5
                        (      33.528 eV)
    93      93       --         1.232 au  C             1.00      1 D:xy            5
                        (      33.528 eV)
    94      94       --         1.232 au  C             1.00      1 D:xz            5
                        (      33.528 eV)
    95      95       --         1.232 au  C             1.00      1 D:yz            5
                        (      33.528 eV)
    96      96      2.000     -10.058 au  C             1.00      1 S               6
                        (    -273.681 eV)
    97      97      2.000      -0.510 au  C             1.00      2 S               6
                        (     -13.876 eV)
    98      98       --         0.371 au  C             1.00      3 S               6
                        (      10.091 eV)
    99      99       --         5.428 au  C             1.00      4 S               6
                        (     147.707 eV)
   100     100       --        50.181 au  C             1.00      5 S               6
                        (    1365.486 eV)
   101     101      0.667      -0.199 au  C             1.00      1 P:x             6
                        (      -5.403 eV)
   102     102       --         0.173 au  C             1.00      2 P:x             6
                        (       4.709 eV)
   103     103       --         2.026 au  C             1.00      3 P:x             6
                        (      55.143 eV)
   104     104      0.667      -0.199 au  C             1.00      1 P:y             6
                        (      -5.403 eV)
   105     105       --         0.173 au  C             1.00      2 P:y             6
                        (       4.709 eV)
   106     106       --         2.026 au  C             1.00      3 P:y             6
                        (      55.143 eV)
   107     107      0.667      -0.199 au  C             1.00      1 P:z             6
                        (      -5.403 eV)
   108     108       --         0.173 au  C             1.00      2 P:z             6
                        (       4.709 eV)
   109     109       --         2.026 au  C             1.00      3 P:z             6
                        (      55.143 eV)
   110     110       --         1.232 au  C             1.00      1 D:z2            6
                        (      33.528 eV)
   111     111       --         1.232 au  C             1.00      1 D:x2-y2         6
                        (      33.528 eV)
   112     112       --         1.232 au  C             1.00      1 D:xy            6
                        (      33.528 eV)
   113     113       --         1.232 au  C             1.00      1 D:xz            6
                        (      33.528 eV)
   114     114       --         1.232 au  C             1.00      1 D:yz            6
                        (      33.528 eV)
   115     115      1.000      -0.244 au  H             1.00      1 S               7
                        (      -6.626 eV)
   116     116       --         0.093 au  H             1.00      2 S               7
                        (       2.536 eV)
   117     117       --         1.515 au  H             1.00      3 S               7
                        (      41.236 eV)
   118     118       --         0.400 au  H             1.00      1 P:x             7
                        (      10.872 eV)
   119     119       --         0.400 au  H             1.00      1 P:y             7
                        (      10.872 eV)
   120     120       --         0.400 au  H             1.00      1 P:z             7
                        (      10.872 eV)
   121     121      1.000      -0.244 au  H             1.00      1 S               8
                        (      -6.626 eV)
   122     122       --         0.093 au  H             1.00      2 S               8
                        (       2.536 eV)
   123     123       --         1.515 au  H             1.00      3 S               8
                        (      41.236 eV)
   124     124       --         0.400 au  H             1.00      1 P:x             8
                        (      10.872 eV)
   125     125       --         0.400 au  H             1.00      1 P:y             8
                        (      10.872 eV)
   126     126       --         0.400 au  H             1.00      1 P:z             8
                        (      10.872 eV)
   127     127      1.000      -0.244 au  H             1.00      1 S               9
                        (      -6.626 eV)
   128     128       --         0.093 au  H             1.00      2 S               9
                        (       2.536 eV)
   129     129       --         1.515 au  H             1.00      3 S               9
                        (      41.236 eV)
   130     130       --         0.400 au  H             1.00      1 P:x             9
                        (      10.872 eV)
   131     131       --         0.400 au  H             1.00      1 P:y             9
                        (      10.872 eV)
   132     132       --         0.400 au  H             1.00      1 P:z             9
                        (      10.872 eV)
   133     133      1.000      -0.244 au  H             1.00      1 S              10
                        (      -6.626 eV)
   134     134       --         0.093 au  H             1.00      2 S              10
                        (       2.536 eV)
   135     135       --         1.515 au  H             1.00      3 S              10
                        (      41.236 eV)
   136     136       --         0.400 au  H             1.00      1 P:x            10
                        (      10.872 eV)
   137     137       --         0.400 au  H             1.00      1 P:y            10
                        (      10.872 eV)
   138     138       --         0.400 au  H             1.00      1 P:z            10
                        (      10.872 eV)
   139     139      1.000      -0.244 au  H             1.00      1 S              11
                        (      -6.626 eV)
   140     140       --         0.093 au  H             1.00      2 S              11
                        (       2.536 eV)
   141     141       --         1.515 au  H             1.00      3 S              11
                        (      41.236 eV)
   142     142       --         0.400 au  H             1.00      1 P:x            11
                        (      10.872 eV)
   143     143       --         0.400 au  H             1.00      1 P:y            11
                        (      10.872 eV)
   144     144       --         0.400 au  H             1.00      1 P:z            11
                        (      10.872 eV)
   145     145      1.000      -0.244 au  H             1.00      1 S              12
                        (      -6.626 eV)
   146     146       --         0.093 au  H             1.00      2 S              12
                        (       2.536 eV)
   147     147       --         1.515 au  H             1.00      3 S              12
                        (      41.236 eV)
   148     148       --         0.400 au  H             1.00      1 P:x            12
                        (      10.872 eV)
   149     149       --         0.400 au  H             1.00      1 P:y            12
                        (      10.872 eV)
   150     150       --         0.400 au  H             1.00      1 P:z            12
                        (      10.872 eV)



 ================================
 (Slater-type)  F U N C T I O N S  ***  (Basis and Fit)  ***
 ================================
  

 Atom Type    1  (C)
 ==============

 Valence Basis Sets:   9
 -----------------------
   1 S    7.680000
   1 S    5.000000
   2 S    1.280000
   2 S    2.100000
   2 S    4.600000
   2 P    0.820000
   2 P    1.480000
   2 P    2.940000
   3 D    2.200000

 Atom Type    2  (H)
 ==============

 Valence Basis Sets:   4
 -----------------------
   1 S    0.690000
   1 S    0.920000
   1 S    1.580000
   2 P    1.250000


 BAS: List of all Elementary Cartesian Basis Functions
 =====================================================

 The numbering in the list below (to the right of the function characteristics) is referred
 to in print-outs of MO eigenvectors and Mulliken populations in the BAS representation
 (as contrasted to the SFO representation).

 Notes:
 1. The functions are characterized by a polynomial prefactor (powers of x,y,z and r) and
    an exponential decay factor alpha.
 2. Since the basis sets are specific for an atom TYPE, the individual functions occur on
    all atoms of that type.
 3. The word 'Core' in the left margin signals that it is a Core Function (CF) : not a
    degree of freedom in the valence set, but only used to ensure orthogonalization of
    the other valence basis functions on the frozen Core Orbitals.


 (power of) X  Y  Z  R     Alpha  on Atom
            ==========     =====     ==========

 C                                    1    2    3    4    5    6
                                  ---------------------------------------------------------------------------
            0  0  0  0     7.680      1   21   41   61   81  101
            0  0  0  0     5.000      2   22   42   62   82  102
            0  0  0  1     1.280      3   23   43   63   83  103
            0  0  0  1     2.100      4   24   44   64   84  104
            0  0  0  1     4.600      5   25   45   65   85  105
            1  0  0  0     0.820      6   26   46   66   86  106
            0  1  0  0     0.820      7   27   47   67   87  107
            0  0  1  0     0.820      8   28   48   68   88  108
            1  0  0  0     1.480      9   29   49   69   89  109
            0  1  0  0     1.480     10   30   50   70   90  110
            0  0  1  0     1.480     11   31   51   71   91  111
            1  0  0  0     2.940     12   32   52   72   92  112
            0  1  0  0     2.940     13   33   53   73   93  113
            0  0  1  0     2.940     14   34   54   74   94  114
            2  0  0  0     2.200     15   35   55   75   95  115
            1  1  0  0     2.200     16   36   56   76   96  116
            1  0  1  0     2.200     17   37   57   77   97  117
            0  2  0  0     2.200     18   38   58   78   98  118
            0  1  1  0     2.200     19   39   59   79   99  119
            0  0  2  0     2.200     20   40   60   80  100  120

 H                                    7    8    9   10   11   12
                                  ---------------------------------------------------------------------------
            0  0  0  0     0.690    121  127  133  139  145  151
            0  0  0  0     0.920    122  128  134  140  146  152
            0  0  0  0     1.580    123  129  135  141  147  153
            1  0  0  0     1.250    124  130  136  142  148  154
            0  1  0  0     1.250    125  131  137  143  149  155
            0  0  1  0     1.250    126  132  138  144  150  156

 Total number of charge fitting functions (nprimf)       804
 Total number of Cartesian basis functions (naos)        156
 Total number of Cartesian core functions  (ncos)          0

1
 ***************************************************************************************************



                                              ***********************
                                              *  T E C H N I C A L  *
                                              ***********************
  



 =============================================================
 P A R A L L E L I Z A T I O N  and  V E C T O R I Z A T I O N
 =============================================================
  
 Nr of parallel processes:                                6
 Maximum vector length in NumInt loops:                 128



 =====================
 S C F   U P D A T E S
 =====================
  
 Max. nr. of cycles:                               300
 Convergence criterion:                              0.0000010000
   secondary criterion:                              0.0010000000

 Mix parameter (when DIIS does not apply):           0.2000000000
 Mixed ADIIS+SDIIS will be used                  
    Max number of expansion vectors:                10
    Pure ADIIS when Max([F,P]) is above              0.1000000000
    Pure SDIIS when Max([F,P]) is below              0.0010000000
 Automatic ElectronSmearing (in case of problematic SCF convergence) disabled



 =================
 P R E C I S I O N  ***  (General: NumInt, NeglectFunctionTails, ...)  ***
 =================
  

 NumInt:           Target precision:                 4.0000000000
 -------           Initial precision:                4.0000000000
                   Min. precision (optimization):    4.0000000000

 Neglect Functions:          Basis functions:        0.1000000000E-13
 ------------------          Fit functions:          0.1000000000E-13



 ===========================
 L I N E A R   S C A L I N G
 ===========================
  

 Cut-off radii density fit:                        0.1000000000E-07
 Overlap cut-off criterion AO matrix elements:     0.1000000000E-05
 Cut-offs for Coulomb potential and fitted density:0.1000000000E-07
 Cut-off criterion for Coulomb multipole terms:    0.1000000000E-07
 Progressive Convergence parameter:                 0.000000000    
1
 ***************************************************************************************************



                                            ***************************
                                            *  C O M P U T A T I O N  *
                                            ***************************
  

 Number of elements of the density matrix on this node (used, total):      1962     12246



 ===========================================
 Numerical Integration : Fuzzy Cells (Becke)
 ===========================================
  
 Becke grid quality: NORMAL         
  
 Lebedev angular grid order:             min:  11 max:  23
 Nr. of radial points:                   min:  46 max:  52

 Total nr. of points:      75660
 Nr. of blocks:              592
 Block length:               128
 Nr. of dummy points:        116


 Test of Precision of the Numerical Integration Grid
 ===================================================

 Integral of the Total Core Density:                   0.00000000000000



 ========================
 Density Fitting (zlmFit)
 ========================
  
 ZlmFit Fit Quality: NORMAL         
  
 Max L-expansion:                        min:   5 max:   6
 Nr. of radial interpolation points:     min:  36 max:  48



 =====
 S C F  ***  ScaSCF  ***
 =====
  
 Initial density matrix is calculated as sum of fragments

 CYCLE    1
 SCF Error: norm([F,P])=      5.990923942143, max([F,P])=      0.980280756527
 orbitals (Q,E):
 ---------------
 A :12...31          ( 2.00    -0.6583)  ( 2.00    -0.6250)  ( 2.00    -0.5884)  ( 2.00    -0.5691)
                     ( 2.00    -0.5689)  ( 2.00    -0.5031)  ( 2.00    -0.5016)  ( 2.00    -0.5015)
                     ( 2.00    -0.4055)  ( 2.00    -0.4055)  ( 0.00    -0.2151)  ( 0.00    -0.2151)
                     ( 0.00    -0.0768)  ( 0.00    -0.0731)  ( 0.00    -0.0375)  ( 0.00    -0.0375)
                     ( 0.00    -0.0111)  ( 0.00    -0.0111)  ( 0.00     0.0270)  ( 0.00     0.0510)

 CYCLE    2
   MIX coefficients:  0.8000  0.2000
 SCF Error: norm([F,P])=      0.892321516234, max([F,P])=      0.187107019248
 orbitals (Q,E):
 ---------------
 A :12...22          ( 2.00    -0.5946)  ( 2.00    -0.5421)  ( 2.00    -0.5328)  ( 2.00    -0.5022)
                     ( 2.00    -0.5020)  ( 2.00    -0.4366)  ( 2.00    -0.4344)  ( 2.00    -0.4343)
                     ( 2.00    -0.3389)  ( 2.00    -0.3388)  ( 0.00    -0.1501)

 CYCLE    3
  SDIIS (wt  0.000): -1.2669  2.2669
 A-DIIS (wt  1.000):  0.0000  1.0000
  DIIS coefficients:  0.0000  1.0000
 SCF Error: norm([F,P])=      0.521451686374, max([F,P])=      0.102610028891
 orbitals (Q,E):
 ---------------
 A :12...22          ( 2.00    -0.3985)  ( 2.00    -0.3564)  ( 2.00    -0.2966)  ( 2.00    -0.2964)
                     ( 2.00    -0.2951)  ( 2.00    -0.2475)  ( 2.00    -0.2227)  ( 2.00    -0.2227)
                     ( 2.00    -0.1499)  ( 2.00    -0.1498)  ( 0.00     0.0285)

 CYCLE    4
  SDIIS (wt  0.000):  0.1837  0.3521  0.4642
 A-DIIS (wt  1.000): -0.0000  0.6402  0.3598
  DIIS coefficients: -0.0000  0.6402  0.3598
 SCF Error: norm([F,P])=      0.743247766067, max([F,P])=      0.172655394288
 orbitals (Q,E):
 ---------------
 A :12...22          ( 2.00    -0.4673)  ( 2.00    -0.4037)  ( 2.00    -0.3933)  ( 2.00    -0.3709)
                     ( 2.00    -0.3706)  ( 2.00    -0.3293)  ( 2.00    -0.2970)  ( 2.00    -0.2969)
                     ( 2.00    -0.2286)  ( 2.00    -0.2286)  ( 0.00    -0.0404)

 CYCLE    5
  SDIIS (wt  0.902): -0.0172  0.2159  0.0732  0.7280
 A-DIIS (wt  0.098):  0.0000  0.0000  0.0000  1.0000
  DIIS coefficients: -0.0155  0.1947  0.0660  0.7548
 SCF Error: norm([F,P])=      0.076223352084, max([F,P])=      0.010730487213
 orbitals (Q,E):
 ---------------
 A :12...22          ( 2.00    -0.4793)  ( 2.00    -0.4187)  ( 2.00    -0.4084)  ( 2.00    -0.3828)
                     ( 2.00    -0.3825)  ( 2.00    -0.3380)  ( 2.00    -0.3110)  ( 2.00    -0.3109)
                     ( 2.00    -0.2384)  ( 2.00    -0.2383)  ( 0.00    -0.0510)

 CYCLE    6
  SDIIS (wt  0.993): -0.0029  0.0315  0.0082  0.1926  0.7705
 A-DIIS (wt  0.007):  0.0000  0.0000  0.0000  0.0000  1.0000
  DIIS coefficients: -0.0028  0.0313  0.0082  0.1913  0.7721
 SCF Error: norm([F,P])=      0.010709559359, max([F,P])=      0.001696110880
 orbitals (Q,E):
 ---------------
 A :12...22          ( 2.00    -0.4790)  ( 2.00    -0.4180)  ( 2.00    -0.4073)  ( 2.00    -0.3826)
                     ( 2.00    -0.3824)  ( 2.00    -0.3374)  ( 2.00    -0.3104)  ( 2.00    -0.3103)
                     ( 2.00    -0.2377)  ( 2.00    -0.2377)  ( 0.00    -0.0502)

 CYCLE    7
  SDIIS (wt  1.000):  0.0009  0.0020  0.0002  0.0235  0.1237  0.8497
  DIIS coefficients:  0.0009  0.0020  0.0002  0.0235  0.1237  0.8497
 SCF Error: norm([F,P])=      0.001136569621, max([F,P])=      0.000273357476
 orbitals (Q,E):
 ---------------
 A :12...22          ( 2.00    -0.4791)  ( 2.00    -0.4181)  ( 2.00    -0.4075)  ( 2.00    -0.3827)
                     ( 2.00    -0.3824)  ( 2.00    -0.3376)  ( 2.00    -0.3105)  ( 2.00    -0.3104)
                     ( 2.00    -0.2379)  ( 2.00    -0.2378)  ( 0.00    -0.0504)

 CYCLE    8
  SDIIS (wt  1.000):  0.0005  0.0005  0.0000  0.0094  0.0526  0.4252  0.5117
  DIIS coefficients:  0.0005  0.0005  0.0000  0.0094  0.0526  0.4252  0.5117
 SCF Error: norm([F,P])=      0.000332515881, max([F,P])=      0.000083646663
 orbitals (Q,E):
 ---------------
 A :12...22          ( 2.00    -0.4791)  ( 2.00    -0.4181)  ( 2.00    -0.4075)  ( 2.00    -0.3827)
                     ( 2.00    -0.3825)  ( 2.00    -0.3376)  ( 2.00    -0.3105)  ( 2.00    -0.3105)
                     ( 2.00    -0.2379)  ( 2.00    -0.2378)  ( 0.00    -0.0504)

 CYCLE    9
  SDIIS (wt  1.000):  0.0001 -0.0002 -0.0000 -0.0004 -0.0007  0.0151  0.3268  0.6593
  DIIS coefficients:  0.0001 -0.0002 -0.0000 -0.0004 -0.0007  0.0151  0.3268  0.6593
 SCF Error: norm([F,P])=      0.000158762700, max([F,P])=      0.000042171317
 orbitals (Q,E):
 ---------------
 A :12...22          ( 2.00    -0.4791)  ( 2.00    -0.4181)  ( 2.00    -0.4075)  ( 2.00    -0.3827)
                     ( 2.00    -0.3825)  ( 2.00    -0.3376)  ( 2.00    -0.3105)  ( 2.00    -0.3105)
                     ( 2.00    -0.2379)  ( 2.00    -0.2378)  ( 0.00    -0.0504)

 CYCLE   10
  SDIIS (wt  1.000):  0.0001 -0.0001 -0.0000 -0.0003 -0.0006  0.0090  0.2130  0.4325  0.3465
  DIIS coefficients:  0.0001 -0.0001 -0.0000 -0.0003 -0.0006  0.0090  0.2130  0.4325  0.3465
 SCF Error: norm([F,P])=      0.000018100769, max([F,P])=      0.000004274856
 orbitals (Q,E):
 ---------------
 A :12...22          ( 2.00    -0.4791)  ( 2.00    -0.4181)  ( 2.00    -0.4075)  ( 2.00    -0.3827)
                     ( 2.00    -0.3825)  ( 2.00    -0.3376)  ( 2.00    -0.3105)  ( 2.00    -0.3105)
                     ( 2.00    -0.2379)  ( 2.00    -0.2378)  ( 0.00    -0.0504)

 CYCLE   11
  SDIIS (wt  1.000):  0.0000 -0.0000 -0.0000  0.0000 -0.0000 -0.0001 -0.0003  0.0006  0.2164  0.7834
  DIIS coefficients:  0.0000 -0.0000 -0.0000  0.0000 -0.0000 -0.0001 -0.0003  0.0006  0.2164  0.7834
 SCF Error: norm([F,P])=      0.000005095316, max([F,P])=      0.000001232127
 orbitals (Q,E):
 ---------------
 A :12...22          ( 2.00    -0.4791)  ( 2.00    -0.4181)  ( 2.00    -0.4075)  ( 2.00    -0.3827)
                     ( 2.00    -0.3825)  ( 2.00    -0.3376)  ( 2.00    -0.3105)  ( 2.00    -0.3105)
                     ( 2.00    -0.2379)  ( 2.00    -0.2378)  ( 0.00    -0.0504)

 CYCLE   12
  SDIIS (wt  1.000): -0.0000 -0.0000  0.0000 -0.0000 -0.0001 -0.0021 -0.0039  0.0788  0.2957  0.6317
  DIIS coefficients: -0.0000 -0.0000  0.0000 -0.0000 -0.0001 -0.0021 -0.0039  0.0788  0.2957  0.6317
 SCF Error: norm([F,P])=      0.000000265212, max([F,P])=      0.000000038106
 orbitals (Q,E):
 ---------------
 A :12...22          ( 2.00    -0.4791)  ( 2.00    -0.4181)  ( 2.00    -0.4075)  ( 2.00    -0.3827)
                     ( 2.00    -0.3825)  ( 2.00    -0.3376)  ( 2.00    -0.3105)  ( 2.00    -0.3105)
                     ( 2.00    -0.2379)  ( 2.00    -0.2378)  ( 0.00    -0.0504)

 SCF CONVERGED

 CYCLE   13
1
 ***************************************************************************************************



                                                *******************
                                                *  R E S U L T S  *
                                                *******************
  
 *** Using FIT density in Focky
  SDIIS (wt  1.000): -0.0000  0.0000 -0.0000 -0.0000 -0.0005 -0.0009  0.0196  0.0734  0.1936  0.7148
  DIIS coefficients: -0.0000  0.0000 -0.0000 -0.0000 -0.0005 -0.0009  0.0196  0.0734  0.1936  0.7148
 SCF Error: norm([F,P])=      0.000000039800, max([F,P])=      0.000000007688

 Orbital Energies, per Irrep and Spin:
 ======================================
                        Occup              E (au)              E (eV)       Diff (eV) with prev. cycle
                        -----      --------------------        ------       --------------------------
 A
              12        2.000     -0.47913413268792E+00       -13.038              -1.28E-08
              13        2.000     -0.41810997463390E+00       -11.377              -1.26E-08
              14        2.000     -0.40754875688884E+00       -11.090              -2.37E-09
              15        2.000     -0.38269270801084E+00       -10.414              -1.00E-08
              16        2.000     -0.38246926177086E+00       -10.408              -1.07E-08
              17        2.000     -0.33757950122231E+00        -9.186              -9.22E-09
              18        2.000     -0.31054079954585E+00        -8.450              -5.28E-09
              19        2.000     -0.31046361316381E+00        -8.448              -9.54E-09
              20        2.000     -0.23788011822176E+00        -6.473              -8.80E-09
              21        2.000     -0.23782237134070E+00        -6.471              -6.43E-09
              22        0.000     -0.50385464815859E-01        -1.371
              23        0.000     -0.50333407412723E-01        -1.370
              24        0.000      0.20341310571885E-02         0.055
              25        0.000      0.27838289664492E-01         0.758
              26        0.000      0.27861736836315E-01         0.758
              27        0.000      0.60712495996863E-01         1.652
              28        0.000      0.60763024547782E-01         1.653
              29        0.000      0.90658581512091E-01         2.467
              30        0.000      0.96118903587016E-01         2.616
              31        0.000      0.14212259100371E+00         3.867
  
 HOMO :       21 A                -0.23782237134070E+00
 LUMO :       22 A                -0.50385464815859E-01
  


 All Electron Calculation, thus no Orbital Energies of the Core Orbitals are calculated


 Fit test: (difference of exact and fit density, squared integrated, result summed over spins)
         Sum-of-Fragments:                             0.00000000048365
         Orthogonalized Fragments:                     0.00013298856878
         SCF:                                          0.00048707066141



 ==========================
 Electron Density at Nuclei
 ==========================
  
 The electron density is calculated at points on a small sphere around the center of a nucleus.
 The printed electron density is the average electron density on these points.
 The radius of the sphere is the printed approximate finite nuclear radius.

         Atom        Nuclear Radius (Angstrom)             Electron Density (a.u.)
         ----        -------------------------             -----------------------
     1)   C                 0.0000320678                              126.51441
     2)   C                 0.0000320678                              126.51570
     3)   C                 0.0000320678                              126.51462
     4)   C                 0.0000320678                              126.51443
     5)   C                 0.0000320678                              126.51571
     6)   C                 0.0000320678                              126.51463
     7)   H                 0.0000181514                                0.49874
     8)   H                 0.0000181514                                0.49869
     9)   H                 0.0000181514                                0.49864
    10)   H                 0.0000181514                                0.49874
    11)   H                 0.0000181514                                0.49863
    12)   H                 0.0000181514                                0.49864



 =======================================
 M U L L I K E N   P O P U L A T I O N S
 =======================================
  
 The survey below gives for each atom:
 a) the total charge (Z minus electrons)
 b) the net spin polarization (nr of electrons spin-A minus spin-B)
 c) for each spin the atomic electron valence density (integrated) per L-value.

 Atom              Charge    Spin density          S         P         D         F
 ----              ------    ------------       ------    ------    ------    ------
 1 C               0.1754                       3.0649    2.6987    0.0610    0.0000
 2 C               0.1757                       3.0650    2.6984    0.0610    0.0000
 3 C               0.1755                       3.0650    2.6986    0.0610    0.0000
 4 C               0.1754                       3.0649    2.6987    0.0610    0.0000
 5 C               0.1757                       3.0649    2.6984    0.0610    0.0000
 6 C               0.1755                       3.0650    2.6985    0.0610    0.0000
 7 H              -0.1759                       1.1045    0.0714    0.0000    0.0000
 8 H              -0.1756                       1.1042    0.0714    0.0000    0.0000
 9 H              -0.1750                       1.1037    0.0714    0.0000    0.0000
 10 H             -0.1759                       1.1045    0.0715    0.0000    0.0000
 11 H             -0.1757                       1.1042    0.0714    0.0000    0.0000
 12 H             -0.1750                       1.1037    0.0714    0.0000    0.0000

 Populations of individual BAS functions
 ----------------------------------------
 1 C            0.4869  1.5144  0.2298  0.8872 -0.0535 -0.1033  0.1475 -0.2378  0.8054  0.6780
                0.8823  0.2001  0.1366  0.1899  0.0268  0.0122  0.0174 -0.0175  0.0040  0.0181
 2 C            0.4870  1.5144  0.2297  0.8874 -0.0535 -0.2027  0.1473 -0.1394  0.8621  0.6781
                0.8264  0.1925  0.1366  0.1974  0.0181  0.0062  0.0220 -0.0175  0.0100  0.0221
 3 C            0.4870  1.5144  0.2298  0.8873 -0.0535 -0.2074  0.1474 -0.1342  0.8648  0.6781
                0.8235  0.1922  0.1366  0.1977  0.0180  0.0059  0.0216 -0.0175  0.0103  0.0227
 4 C            0.4869  1.5144  0.2298  0.8872 -0.0535 -0.1033  0.1475 -0.2378  0.8054  0.6780
                0.8823  0.2001  0.1366  0.1899  0.0268  0.0122  0.0174 -0.0175  0.0040  0.0181
 5 C            0.4870  1.5144  0.2297  0.8874 -0.0535 -0.2023  0.1473 -0.1398  0.8621  0.6781
                0.8264  0.1926  0.1366  0.1973  0.0181  0.0062  0.0220 -0.0176  0.0100  0.0222
 6 C            0.4870  1.5144  0.2298  0.8873 -0.0535 -0.2071  0.1474 -0.1346  0.8647  0.6781
                0.8235  0.1922  0.1366  0.1977  0.0179  0.0059  0.0216 -0.0175  0.0103  0.0227
 7 H            0.2098  0.5759  0.3188  0.0289  0.0217  0.0208
 8 H            0.2093  0.5761  0.3188  0.0295  0.0217  0.0202
 9 H            0.2085  0.5762  0.3189  0.0162  0.0217  0.0334
 10 H           0.2098  0.5759  0.3188  0.0288  0.0217  0.0209
 11 H           0.2093  0.5762  0.3188  0.0294  0.0217  0.0203
 12 H           0.2085  0.5762  0.3189  0.0162  0.0217  0.0334

 Gross Charges per Atom (Z minus electrons)
 ==========================================
             0.1754    0.1757    0.1755    0.1754    0.1757    0.1755   -0.1759   -0.1756   -0.1750   -0.1759
            -0.1757   -0.1750
 Net Total:  0.00000000


 Atom-Atom Population Matrix (off-diagonal elements not doubled)
 ===============================================================

     1 :     4.5229
     2 :     0.5418    4.5223
     3 :    -0.0106    0.5417    4.5224
     4 :    -0.0557   -0.0106    0.5419    4.5229
     5 :    -0.0106   -0.0555   -0.0107    0.5417    4.5222
     6 :     0.5418   -0.0107   -0.0555   -0.0106    0.5418    4.5224
     7 :    -0.0535    0.3939   -0.0536    0.0021    0.0041    0.0022    0.9822
     8 :     0.0021   -0.0536    0.3939   -0.0536    0.0022    0.0041   -0.0478    0.9818
     9 :     0.0041    0.0022   -0.0533    0.3939   -0.0535    0.0021   -0.0038   -0.0474    0.9808
    10 :     0.0022    0.0041    0.0021   -0.0537    0.3939   -0.0534    0.0015   -0.0038   -0.0478    0.9822
    11 :    -0.0537    0.0021    0.0041    0.0022   -0.0534    0.3939   -0.0038    0.0015   -0.0038   -0.0474
             0.9818
    12 :     0.3939   -0.0533    0.0022    0.0041    0.0021   -0.0535   -0.0474   -0.0038    0.0016   -0.0038
            -0.0478    0.9808



 =================================================
 H I R S H F E L D   C H A R G E   A N A L Y S I S
 =================================================
  
 For each fragment: the (numerical) integral of rho(scf) * rho(fragment)/rho(sum-of-fragments)
 (nuclear charges are included, electrons are counted negative)

 The fragments and their ordering are defined in the early G E O M E T R Y output section.
 If you use single-atom fragments, this usually implies that all atoms of the same
 chemical type are grouped together. This may not be the order in which you listed them
 in the input file!

    1  C                        -0.0463
    2  C                        -0.0463
    3  C                        -0.0463
    4  C                        -0.0463
    5  C                        -0.0463
    6  C                        -0.0463
    7  H                         0.0463
    8  H                         0.0463
    9  H                         0.0462
   10  H                         0.0463
   11  H                         0.0463
   12  H                         0.0462

 Sum of these charges (accuracy NumInt/Tails) =          -0.00005967



 =============================
 V O R O N O I   C H A R G E S
 =============================
  
 For each atom: the (numerical) integral of the total electronic charge density in its Voronoi cell,
 i.e. the region of space that is closer to that atom than to any other atom.
 (cf. Wigner-Seitz cells in crystals)

 Within the Voronoi cell the subintegrals over the atomic sphere and the remaining part are evaluated
 separately to give the numbers of electrons (negative charge) in these regions.
 The net total charge in the cell (including the nuclear charge) is also given.

 Values are provided for
    a) the Initial (sum-of-fragments) density
    b) the Orthogonalized-Fragments density
    c) the SCF density
    d) the Voronoi Deformation Density (VDD): the difference SCF-Initial for the complete atomic cell


  Atom                Initial                    OrthFrag                   SCF
             Sphere RestCell NetTotal   Sphere RestCell NetTotal   Sphere RestCell NetTotal      VDD
 -----       ------------------------   ------------------------   ------------------------    -----
    1 C      -2.269   -3.185    0.547   -2.452   -3.137    0.411   -2.303   -3.206    0.491   -0.056
    2 C      -2.269   -3.191    0.540   -2.452   -3.138    0.410   -2.303   -3.208    0.489   -0.051
    3 C      -2.269   -3.189    0.542   -2.452   -3.142    0.406   -2.303   -3.211    0.486   -0.056
    4 C      -2.268   -3.188    0.544   -2.452   -3.139    0.409   -2.303   -3.208    0.489   -0.055
    5 C      -2.269   -3.191    0.541   -2.452   -3.138    0.410   -2.303   -3.208    0.489   -0.052
    6 C      -2.269   -3.186    0.546   -2.452   -3.140    0.408   -2.303   -3.208    0.488   -0.057
    7 H      -0.075   -1.473   -0.547   -0.096   -1.317   -0.413   -0.109   -1.384   -0.492    0.055
    8 H      -0.075   -1.465   -0.539   -0.096   -1.310   -0.405   -0.109   -1.375   -0.484    0.055
    9 H      -0.075   -1.465   -0.540   -0.096   -1.312   -0.407   -0.109   -1.378   -0.487    0.053
   10 H      -0.075   -1.473   -0.548   -0.096   -1.317   -0.413   -0.109   -1.384   -0.493    0.055
   11 H      -0.075   -1.469   -0.543   -0.096   -1.312   -0.407   -0.109   -1.378   -0.487    0.056
   12 H      -0.075   -1.467   -0.542   -0.096   -1.314   -0.409   -0.109   -1.380   -0.489    0.053
 ---------------------------------------------------------------------------------------------------
 Total NetCharge:              -0.000                     -0.000                     -0.000    0.000
 (accuracy NumInt/Tails)

 Remark: the 'NetTotal' Voronoi charges often do not match the Mulliken and/or Hirshfeld charges very
 well. This is caused by the fact that chemically different atoms are not treated in accordance with
 their relative sizes. (Voronoi cells are defined by boundary planes halfway between the atoms.)
 However, the CHANGES in charge, comparing 'Initial' to 'SCF' for instance, do give a fair indication
 of the flow of charge caused by the relaxation from sum-of-fragments to self-consistency.

 Warning: the absolute accuracy of the VDD charges obtained using the Fuzzy Cells (Becke) integration
 scheme is much poorer than the one obtained with an 'equivalent' Voronoi integration grid. 



 =================================================================
 M U L T I P O L E   D E R I V E D   C H A R G E   A N A L Y S I S
 =================================================================

 This charge analysis uses the atomic multipoles (obtained from the fitted density) up to some level X,
 and reconstructs these multipoles exactly (up to level X) by distributing charges over all atoms.
 This is achieved by using Lagrange multipliers and a weight function to keep the multipoles local.

 Dummy atoms can be included (by setting INCDUM in MDC-block to 1) to obtain a fractional charge.
 This is generally useful and necessary only for small symmetrical molecules, when there are not
 enough degrees of freedom to reconstruct the multipoles.

 Since the atomic multipoles are reconstructed up to level X,
 the molecular multipoles are represented also up to level X.
 The recommended level is to reconstruct up to quadrupole : -> MDC-q charges.

 See: M. Swart, P.Th. van Duijnen, J.G. Snijders, J.Comput.Chem., (2001), p. 79-88.

 ------------------------------------------------------------- 
 Atomic electronic multipole moments from SCF equations (a.u.)
 ------------------------------------------------------------- 

   atom        charge        dip-x     dip-y     dip-z      quad-xx   quad-xy   quad-xz   quad-yy   quad-yz   quad-zz
 --------------------------------------------------------------------------------------------------------------------
    1 C      0.060865     0.001493  0.000000 -0.047119     0.468971 -0.000000 -0.001670 -0.996634 -0.000000  0.527663
    2 C      0.060454    -0.042323  0.000000 -0.025188     0.509983 -0.000000  0.014473 -0.993836 -0.000000  0.483853
    3 C      0.060592    -0.042705  0.000000  0.022975     0.513502 -0.000000 -0.014515 -0.994879  0.000000  0.481377
    4 C      0.060864    -0.000486  0.000000  0.047139     0.468857 -0.000000  0.000146 -0.996631  0.000000  0.527774
    5 C      0.060457     0.041804 -0.000000  0.026051     0.507480 -0.000000  0.015335 -0.993829  0.000000  0.486350
    6 C      0.060587     0.042197  0.000000 -0.023839     0.511142 -0.000000 -0.015480 -0.994880 -0.000000  0.483737
    7 H     -0.060622    -0.019628  0.000000 -0.011564     0.160775 -0.000000  0.080349 -0.195380 -0.000000  0.034605
    8 H     -0.060617    -0.019994 -0.000000  0.010653     0.171111 -0.000000 -0.076430 -0.195679 -0.000000  0.024569
    9 H     -0.060671    -0.000143  0.000000  0.022633    -0.038583  0.000000 -0.003517 -0.194894 -0.000000  0.233477
   10 H     -0.060627     0.019272  0.000000  0.012164     0.159810 -0.000000  0.080679 -0.195363  0.000000  0.035553
   11 H     -0.060609     0.019682  0.000000 -0.011271     0.170201  0.000000 -0.076801 -0.195661 -0.000000  0.025460
   12 H     -0.060673     0.000830  0.000000 -0.022622    -0.038542  0.000000 -0.004215 -0.194893  0.000000  0.233435

 --------------------------------------- 
 Multipole derived atomic charges (a.u.)
 --------------------------------------- 

 The MDC-m charges are just the Monopole terms in the multipole expansion, while for the MDC-d charges
 also the Dipoles are reconstructed. The usually preferred charges are the MDC-q charges.
 These reconstruct the Monopoles, Dipoles and Quadrupoles (both atomic AND molecular).

        Atom    Level:     MDC-m        MDC-d        MDC-q
 ---------------------------------------------------------
     1     C            0.060865     0.034927    -0.125980
     2     C            0.060454     0.034498    -0.128120
     3     C            0.060592     0.034648    -0.127919
     4     C            0.060864     0.034926    -0.125986
     5     C            0.060457     0.034499    -0.127989
     6     C            0.060587     0.034640    -0.127743
     7     H           -0.060622    -0.034359     0.127747
     8     H           -0.060617    -0.034635     0.127500
     9     H           -0.060671    -0.035077     0.126710
    10     H           -0.060627    -0.034359     0.127672
    11     H           -0.060609    -0.034628     0.127404
    12     H           -0.060673    -0.035079     0.126704

 ------------------------------------------------ 
 Average absolute deviations in atomic multipoles
 ------------------------------------------------ 

 Stated here are the average differences between the atomic multipoles
 and the reconstructed atomic multipoles (from the distributed charges).
 If these values are not zero, this means there are not enough degrees of freedom,
 to be able to reconstruct the atomic multipoles. (This usually happens only
 for small and/or highly symmetric molecules). If this is the case, one could add
 dummy atoms as extra point charges (and setting INCDUM in MDC-block to 1).

 Level:                                 MDC-d        MDC-q
 ---------------------------------------------------------
 Charge   (a.u.)                       0.0000       0.0000
 Dipole   (Debye)                      0.0000       0.0000
 Quad.    (a.u.)                       0.2134       0.0000

 --------------------------------------- 
 Represented molecular multipole moments
 --------------------------------------- 

 Given here are the Molecular multipole moments from the atomic charges, and from the Fit Density.
 Note that the atomic charges represent the latter, NOT the ones from the Exact density.

            Q (a.u.)             Dipole moment (Debye)                                          Quadrupole moment (a.u.)
                                 x         y         z              xx        xy        xz        yy        yz        zz
------------------------------------------------------------------------------------------------------------------------
MDC-m        -0.0000        0.0000   -0.0000   -0.0000         -1.3796    0.0001   -0.0014    2.7587   -0.0001   -1.3790
MDC-d        -0.0000        0.0000   -0.0000    0.0000         -0.7729    0.0000    0.0073    1.5782    0.0001   -0.8053
MDC-q        -0.0000        0.0000   -0.0000    0.0000          2.9007    0.0000    0.0053   -5.7910    0.0001    2.8903
 
Fit.Dens.    -0.0000        0.0000    0.0000    0.0000          2.9007    0.0000    0.0045   -5.7910    0.0001    2.8903



 =============
 Dipole Moment  ***  (Debye)  ***
 =============
  
 Vector   :        -0.00006950     -0.00000007      0.00005849
 Magnitude:         0.00009084

 This molecular dipole moment is calculated with analytic integration



 =========================================
 Quadrupole Moment (Buckingham convention)  ***  (a.u.)  ***
 =========================================
  
      quad-xx        quad-xy        quad-xz        quad-yy        quad-yz        quad-zz
      2.91213550    -0.00030986     0.00271176    -5.81937644     0.00026083     2.90724094

 This molecular quadrupole moment is calculated with analytic integration
1



 =======================================================
 S F O   P O P U L A T I O N S ,   M O   A N A L Y S I S
 =======================================================
  
 A Mulliken population analysis is performed on (input-)selected MOs. All populations refer to SFOs.
 BAS populations may have been printed directly after the SCF part.


                                       === A ===


 SFO contributions (%) per orbital
 (multiplication by the orbital occupation yields the SFO Gross Populations)

 Orb.:       12     13     14     15     16     17     18     19     20     21     22     23     24     25
 occup:     2.00   2.00   2.00   2.00   2.00   2.00   2.00   2.00   2.00   2.00   0.00   0.00   0.00   0.00
 CF+SFO     ----   ----   ----   ----   ----   ----   ----   ----   ----   ----   ----   ----   ----   ----
 ------
      2:    0.24   4.04   0.00  -0.00   0.03  -0.00  -0.00  -0.06   0.00   0.00   0.00   0.00  -0.24   0.01
      3:   -0.08   0.11   0.00  -0.00  -0.18   0.00  -0.00  -0.02   0.00   0.00   0.00  -0.00  -2.69  -0.11
      6:    0.01   0.00  14.44   0.43  -0.00  -0.00   8.98   0.19   0.00  -0.00   0.00  -0.00   0.00  -1.74
      7:    0.00   0.00   2.00   0.67   0.00   0.00   2.99   0.07   0.00  -0.00  -0.00  -0.00  -0.00  -8.09
      9:    0.00  -0.00  -0.00   0.00   0.00  17.22  -0.00  -0.00   0.32  31.44   0.49  34.01   0.00  -0.00
     10:   -0.00   0.00  -0.00   0.00   0.00  -0.98  -0.00  -0.00   0.00   0.11  -0.05  -3.80  -0.00   0.00
     12:   10.70   2.58   0.01   0.32  17.48  -0.00   0.15   5.72   0.00   0.00   0.00   0.00   0.73   0.15
     13:    0.23   0.28   0.00   0.01   1.25  -0.00   0.04   1.42  -0.00   0.00  -0.00  -0.00  -0.51  -1.78
     17:    0.00   0.00  -0.00  -0.00  -0.00   0.00   0.00   0.00   0.60   0.01   1.12   0.02  -0.00  -0.00
     21:    0.24   4.02   0.00   0.03   0.01   0.00  -0.05  -0.01   0.00  -0.00  -0.00  -0.00  -0.24   0.01
     22:   -0.08   0.11   0.00  -0.16  -0.03   0.00  -0.02  -0.00   0.00  -0.00   0.00   0.00  -2.69  -0.21
     25:    7.86   1.94   3.84  10.14   2.94   0.00   6.45   0.28  -0.00  -0.00  -0.00   0.00   0.53  -0.75
     26:    0.17   0.21   0.53   0.24   0.86  -0.00   1.98  -0.08  -0.00  -0.00  -0.00  -0.00  -0.37  -9.00
     28:   -0.00  -0.00   0.00  -0.00   0.00  17.22   0.00   0.00  26.45   5.32  22.12  12.38   0.00   0.00
     29:    0.00  -0.00   0.00  -0.00  -0.00  -0.98   0.00   0.00   0.10   0.02  -2.47  -1.38   0.00   0.00
     31:    2.84   0.71  10.64   5.12  -0.07  -0.00  -0.11   8.40   0.00   0.00  -0.00  -0.00   0.20  -0.37
     32:    0.06   0.07   1.47   0.93  -0.11  -0.00  -0.27   2.90  -0.00   0.00  -0.00   0.00  -0.14  -1.13
     40:    0.24   4.03   0.00   0.02   0.01   0.00  -0.04  -0.02   0.00   0.00   0.00   0.00  -0.24   0.04
     41:   -0.08   0.11   0.00  -0.11  -0.07   0.00  -0.01  -0.01  -0.00   0.00   0.00  -0.00  -2.69  -0.61
     44:    8.25   2.02   3.30   7.22   6.51   0.00   6.77  -0.16  -0.00  -0.00  -0.00   0.00   0.56   0.45
     45:    0.18   0.22   0.46  -0.09   1.22  -0.00   2.19  -0.35  -0.00   0.00  -0.00   0.00  -0.39  -9.34
     47:   -0.00  -0.00  -0.00   0.00  -0.00  17.22   0.00   0.00  20.90  10.87  29.17   5.33   0.00   0.00
     48:   -0.00   0.00  -0.00   0.00   0.00  -0.98  -0.00  -0.00   0.08   0.04  -3.26  -0.60  -0.00  -0.00
     50:    2.45   0.60  11.17   4.00   0.41   0.00   0.29   8.12  -0.00   0.00  -0.00   0.00   0.17   0.27
     51:    0.05   0.06   1.54   1.13  -0.33  -0.00  -0.14   2.83   0.00  -0.00  -0.00   0.00  -0.12  -1.74
     59:    0.24   4.04   0.00   0.00   0.03  -0.00  -0.00  -0.06   0.00  -0.00   0.00   0.00  -0.24   0.01
     60:   -0.08   0.11   0.00  -0.00  -0.18   0.00  -0.00  -0.02   0.00  -0.00  -0.00   0.00  -2.69  -0.10
     63:    0.00   0.00  14.44   0.43  -0.00  -0.00   8.99   0.19   0.00   0.00   0.00  -0.00   0.00  -1.73
     64:    0.00   0.00   2.00   0.66   0.00   0.00   2.99   0.07  -0.00   0.00   0.00   0.00  -0.00  -8.06
     66:    0.00  -0.00   0.00  -0.00  -0.00  17.22   0.00   0.00   0.33  31.43   0.48  34.02   0.00   0.00
     67:    0.00   0.00   0.00  -0.00  -0.00  -0.98   0.00   0.00   0.00   0.11  -0.05  -3.80   0.00   0.00
     69:   10.70   2.58   0.00   0.31  17.49   0.00   0.14   5.73   0.00  -0.00   0.00   0.00   0.73   0.15
     70:    0.23   0.28   0.00   0.01   1.25   0.00   0.04   1.42  -0.00  -0.00   0.00   0.00  -0.51  -1.68
     74:    0.00   0.00   0.00   0.00   0.00   0.00   0.00   0.00   0.60   0.01   1.12   0.02  -0.00   0.00
     78:    0.24   4.02   0.00   0.03   0.01  -0.00  -0.05  -0.01   0.00   0.00   0.00   0.00  -0.24   0.01
     79:   -0.08   0.11  -0.00  -0.16  -0.03  -0.00  -0.02  -0.00  -0.00   0.00  -0.00   0.00  -2.69  -0.20
     82:    7.78   1.94   3.92  10.15   2.92  -0.00   6.47   0.30  -0.00   0.00   0.00   0.00   0.53  -0.73
     83:    0.17   0.21   0.54   0.24   0.86   0.00   1.98  -0.08  -0.00  -0.00   0.00  -0.00  -0.37  -8.82
     85:   -0.00   0.00  -0.00   0.00   0.00  17.22  -0.00  -0.00  26.42   5.34  22.09  12.41   0.00  -0.00
     86:   -0.00  -0.00  -0.00   0.00   0.00  -0.98  -0.00   0.00   0.10   0.02  -2.47  -1.39   0.00  -0.00
     88:    2.92   0.71  10.55   5.13  -0.07  -0.00  -0.11   8.37   0.00   0.00   0.00   0.00   0.19  -0.38
     89:    0.07   0.08   1.46   0.93  -0.11  -0.00  -0.28   2.90   0.00  -0.00  -0.00   0.00  -0.13  -1.14
     97:    0.24   4.03   0.00   0.01   0.02   0.00  -0.04  -0.02   0.00   0.00  -0.00   0.00  -0.24   0.04
     98:   -0.08   0.11   0.00  -0.11  -0.07   0.00  -0.01  -0.01   0.00   0.00   0.00   0.00  -2.69  -0.60
    101:    8.17   2.02   3.38   7.24   6.48  -0.00   6.81  -0.16  -0.00   0.00  -0.00   0.00   0.56   0.46
    102:    0.18   0.22   0.47  -0.10   1.21   0.00   2.19  -0.35   0.00   0.00  -0.00  -0.00  -0.39  -9.30
    104:   -0.00   0.00   0.00  -0.00   0.00  17.22   0.00   0.00  20.87  10.90  29.14   5.36   0.00   0.00
    105:    0.00   0.00   0.00  -0.00   0.00  -0.98   0.00   0.00   0.08   0.04  -3.25  -0.60  -0.00   0.00
    107:    2.53   0.61  11.09   4.02   0.41   0.00   0.28   8.10  -0.00  -0.00  -0.00   0.00   0.17   0.26
    108:    0.06   0.06   1.53   1.13  -0.33  -0.00  -0.14   2.82   0.00  -0.00   0.00  -0.00  -0.12  -1.76
    115:    5.54   9.20   0.00  11.08   1.84   0.00  11.35   1.99   0.00   0.00   0.00   0.00   7.80   7.49
    116:   -0.02   0.16  -0.00   0.13   0.02   0.00  -0.17  -0.03   0.00   0.00   0.00   0.00  11.27  11.11
    121:    5.54   9.17   0.00   8.09   4.86   0.00   8.45   4.91  -0.00   0.00   0.00  -0.00   7.81  21.80
    122:   -0.02   0.16  -0.00   0.10   0.06  -0.00  -0.13  -0.07   0.00  -0.00   0.00  -0.00  11.28  32.39
    125:    0.00  -0.00  -0.00  -0.00   0.00   0.25   0.00   0.00   0.55   0.28   1.16   0.21  -0.00  -0.00
    127:    5.53   9.09   0.00   0.24  12.77  -0.00   0.21  13.15  -0.00  -0.00   0.00   0.00   7.81   3.71
    128:   -0.02   0.16  -0.00   0.00   0.16   0.00  -0.00  -0.19   0.00   0.00   0.00   0.00  11.27   5.54
    131:   -0.00  -0.00  -0.00   0.00  -0.00   0.25   0.00  -0.00   0.01   0.82   0.02   1.35   0.00  -0.00
    133:    5.54   9.20   0.00  11.11   1.81   0.00  11.36   1.98   0.00   0.00   0.00   0.00   7.80   7.33
    134:   -0.02   0.16  -0.00   0.13   0.02  -0.00  -0.17  -0.03   0.00   0.00   0.00   0.00  11.27  10.92
    139:    5.54   9.17   0.00   8.13   4.83   0.00   8.46   4.89   0.00  -0.00   0.00   0.00   7.82  21.77
    140:   -0.02   0.16  -0.00   0.10   0.06   0.00  -0.12  -0.07  -0.00  -0.00   0.00   0.00  11.29  32.35
    143:   -0.00  -0.00  -0.00  -0.00   0.00   0.25  -0.00   0.00   0.55   0.29   1.16   0.21   0.00   0.00
    145:    5.53   9.09   0.00   0.25  12.77   0.00   0.22  13.15   0.00   0.00   0.00   0.00   7.81   3.83
    146:   -0.02   0.16  -0.00   0.00   0.16  -0.00  -0.00  -0.19  -0.00   0.00  -0.00  -0.00  11.28   5.68
    149:    0.00  -0.00   0.00  -0.00   0.00   0.25   0.00   0.00   0.01   0.82   0.02   1.35   0.00  -0.00


 Summation over all MOs, multiplied by occupation: Total SFO Gross Populations in this Irrep
 ===========================================================================================

     2.00    1.07   -0.01   -0.00   -0.00    0.84    0.07   -0.01    0.98   -0.02   -0.00    0.81
     0.03   -0.01    0.02    0.01    0.01    0.02    0.00    2.00    1.07   -0.01   -0.00   -0.00
     0.82    0.04   -0.01    0.98   -0.02   -0.00    0.83    0.06   -0.01    0.02    0.01    0.01
     0.02    0.01    2.00    1.07   -0.01   -0.00   -0.00    0.82    0.04   -0.01    0.98   -0.02
    -0.00    0.83    0.06   -0.01    0.02    0.01    0.01    0.02    0.01    2.00    1.07   -0.01
    -0.00   -0.00    0.84    0.07   -0.01    0.98   -0.02   -0.00    0.81    0.03   -0.01    0.02
     0.01    0.01    0.02    0.00    2.00    1.07   -0.01   -0.00   -0.00    0.82    0.04   -0.01
     0.98   -0.02   -0.00    0.83    0.06   -0.01    0.02    0.01    0.01    0.02    0.01    2.00
     1.07   -0.01   -0.00   -0.00    0.82    0.04   -0.01    0.98   -0.02   -0.00    0.83    0.06
    -0.01    0.02    0.01    0.01    0.02    0.01    1.11   -0.00   -0.00    0.03    0.02    0.02
     1.11   -0.00   -0.00    0.03    0.02    0.02    1.11   -0.00   -0.00    0.02    0.02    0.03
     1.11   -0.00   -0.00    0.03    0.02    0.02    1.11   -0.00   -0.00    0.03    0.02    0.02
     1.11   -0.00   -0.00    0.02    0.02    0.03



 List of all MOs, ordered by energy, with the most significant SFO gross populations
 ===================================================================================

 Each percentage contribution in the table below corresponds to the indicated SFO.
 In general, a SFO may be a linear combination of several Fragment Orbitals on the same,
 or on symmetry-related Fragments. Only the first 'member' of such a combination is
 specified here. A full definition of all SFOs is given in an earlier part of the output.
 The numbering of the SFOs in this table does NOT include the Core Orbitals, and starts
 from one for each symmetry representation, as in the SFO definition list earlier.

       E(eV)  Occ       MO           %     SFO (first member)   E(eV)  Occ   Fragment
 -------------------------------------------------------------------------------------

     -21.394  2.00     7 A         14.60%     2 S             -13.876  2.00     5 C
                                   14.60%     2 S             -13.876  2.00     2 C
                                   14.60%     2 S             -13.876  2.00     1 C
                                   14.60%     2 S             -13.876  2.00     4 C
                                   14.59%     2 S             -13.876  2.00     6 C
                                   14.59%     2 S             -13.876  2.00     3 C
                                    2.37%     1 P:z            -5.403  0.67     1 C
                                    2.37%     1 P:z            -5.403  0.67     4 C
                                    1.83%     1 P:x            -5.403  0.67     6 C
                                    1.82%     1 P:x            -5.403  0.67     3 C
                                    1.74%     1 P:x            -5.403  0.67     5 C
                                    1.74%     1 P:x            -5.403  0.67     2 C
                                    1.24%     1 S              -6.626  1.00    10 H
                                    1.24%     1 S              -6.626  1.00     7 H
                                    1.24%     1 S              -6.626  1.00     8 H
                                    1.24%     1 S              -6.626  1.00    11 H
                                    1.23%     1 S              -6.626  1.00    12 H
                                    1.23%     1 S              -6.626  1.00     9 H
     -18.622  2.00     8 A         20.91%     2 S             -13.876  2.00     2 C
                                   20.89%     2 S             -13.876  2.00     5 C
                                   12.69%     2 S             -13.876  2.00     3 C
                                   12.65%     2 S             -13.876  2.00     6 C
                                    5.49%     1 P:x            -5.403  0.67     4 C
                                    5.48%     1 P:x            -5.403  0.67     1 C
                                    5.16%     1 S              -6.626  1.00     7 H
                                    5.14%     1 S              -6.626  1.00    10 H
                                    3.13%     1 S              -6.626  1.00     8 H
                                    3.11%     1 S              -6.626  1.00    11 H
                                    2.42%     1 P:z            -5.403  0.67     3 C
                                    2.40%     1 P:z            -5.403  0.67     6 C
                                   -1.62%     2 P:x             4.709  0.00     4 C
                                   -1.62%     2 P:x             4.709  0.00     1 C
                                    1.03%     2 S             -13.876  2.00     4 C
                                    1.01%     2 S             -13.876  2.00     1 C
     -18.619  2.00     9 A         22.04%     2 S             -13.876  2.00     1 C
                                   22.02%     2 S             -13.876  2.00     4 C
                                   10.41%     2 S             -13.876  2.00     6 C
                                   10.37%     2 S             -13.876  2.00     3 C
                                    5.43%     1 S              -6.626  1.00    12 H
                                    5.42%     1 S              -6.626  1.00     9 H
                                    3.53%     1 P:z            -5.403  0.67     5 C
[...]
 iter.  6 V(1) measure  0.8939085665004E+05
        6        delta  0.7803776794928E+01
 CRIT  0.608199972973144     
 iter.  7 V(1) measure  0.8938761486966E+05
        7        delta  0.3241780377997E+01
 CRIT  0.101657761911530     
 iter.  8 V(1) measure  0.8938713884024E+05
        8        delta  0.4760294252483E+00
 CRIT  7.867230321820781E-002
 iter.  9 V(1) measure  0.8938681516390E+05
        9        delta  0.3236763337627E+00
 CRIT  3.018754078045170E-002
 iter. 10 V(1) measure  0.8938673934061E+05
       10        delta  0.7582329053548E-01
 *** convergence reached

    RRIJmat_z_z         
    using first order VWN potential
 
    NOTE: We will NOT use the GGA kernel (input option ALDA was set)
 
 CRIT   1.00000000000000     
 iter.  1 V(1) measure  0.1302415434564E+04
 *** convergence criterion : .1302415E-02
 CRIT   159.843525251905     
 iter.  2 V(1) measure  0.1073504183210E+04
        2        delta  0.2289112513541E+03
 CRIT   60.4181460451522     
 iter.  3 V(1) measure  0.1109067447190E+04
        3        delta  0.3556326397948E+02
 CRIT   15.8412002427741     
 iter.  4 V(1) measure  0.1114225344499E+04
        4        delta  0.5157897309394E+01
 CRIT   3.37691116403295     
 iter.  5 V(1) measure  0.1115185933807E+04
        5        delta  0.9605893080336E+00
 CRIT   2.36736816284369     
 iter.  6 V(1) measure  0.1115647570960E+04
        6        delta  0.4616371525649E+00
 CRIT  0.829533711293399     
 iter.  7 V(1) measure  0.1115693781598E+04
        7        delta  0.4621063873947E-01
 CRIT  0.381813537909134     
 iter.  8 V(1) measure  0.1115695171412E+04
        8        delta  0.1389813893866E-02
 CRIT  7.143887654117298E-002
 iter.  9 V(1) measure  0.1115692725085E+04
        9        delta  0.2446327421922E-02
 CRIT  4.937658372625846E-002
 iter. 10 V(1) measure  0.1115691046039E+04
       10        delta  0.1679045840547E-02
 CRIT  7.589220525028431E-003
 iter. 11 V(1) measure  0.1115691368056E+04
       11        delta  0.3220172998226E-03
 *** convergence reached
 ------------------------------------------
 Convergence acceleration: T
 QUADRUPOLE-QUADRUPOLE POLARIZABILITY     
 Frequency  =  0.1322975682     Hartrees
 Wavelength =   344.4005294     nm
 Wavenumber =   29035.96001     cm^{-1}
 Energy     =   3.600000000     eV
 ------------------------------------------
 QUADRUPOLE-QUADRUPOLE Polarizability tensor:
 
 xx xx     4188.86926765043     
 xx xy    -3.03640627871836     
 xx xz   -0.199519832426470     
 xx yy    -4991.69582662902     
 xx yz   -0.255132394090930     
 xx zz     802.826558978631     
 xy xx    -3.04564680239890     
 xy xy     12591.5099958892     
 xy xz   -0.317781315161190     
 xy yy   -4.252785006369780E-002
 xy yz   -0.651624481275372     
 xy zz     3.08817465244640     
 xz xx   -0.200276409429085     
 xz xy   -0.319050580627530     
 xz xz     1693.67247935263     
 xz yy    0.141897780694128     
 xz yz     3.18048809432553     
 xz zz    5.837862873426143E-002
 yy xx    -4991.79867078725     
 yy xy    0.453375800577985     
 yy xz    0.122573665375559     
 yy yy     9983.78875893864     
 yy yz   -0.264699801996840     
 yy zz    -4991.99008815139     
 yz xx   -0.256783265125761     
 yz xy   -0.682766936049045     
 yz xz     3.17856441694059     
 yz yy    1.958437430695703E-002
 yz yz     12590.9386062047     
 yz zz    0.237198890808751     
 zz xx     802.822717997414     
 zz xy     3.08078758905472     
 zz xz    6.491103285426757E-002
 zz yy    -4991.98678513013     
 zz yz    0.236170388941795     
 zz zz     4189.16406713271     
 
 Imaginary QUADRUPOLE-QUADRUPOLE Polarizability tensor:
 
 xx xx     18.6494399840948     
 xx xy   -3.599504493225499E-002
 xx xz   -1.923896817335681E-003
 xx yy    -21.5222704472844     
 xx yz   -3.283506632114842E-003
 xx zz     2.87283046318954     
 xy xx   -2.093900017365409E-002
 xy xy     124.986454553198     
 xy xz   -2.606697233662006E-003
 xy yy   -7.132303820100975E-004
 xy yz    1.040765275638340E-003
 xy zz    2.165223055549022E-002
 xz xx   -1.754936793670996E-003
 xz xy   -2.583245038918964E-003
 xz xz     7.93287548299656     
 xz yy    1.188804398174187E-003
 xz yz    2.206814514652978E-002
 xz zz    5.661323954831502E-004
 yy xx    -21.4933995201807     
 yy xy    0.114102189199169     
 yy xz    4.434761082203941E-004
 yy yy     42.9825144058097     
 yy yz   -6.613595499887712E-002
 yy zz    -21.4891148856290     
 yz xx   -2.225939276842798E-003
 yz xy    1.670846606196678E-003
 yz xz    2.179546200815365E-002
 yz yy    2.841626584288506E-004
 yz yz     124.956588253973     
 yz zz    1.941776618449962E-003
 zz xx     2.84701233154125     
 zz xy    2.170000641770701E-002
 zz xz    6.723882132660852E-004
 zz yy    -21.5534169196070     
 zz yz    1.837286440270296E-003
 zz zz     18.7064045880657     



 =======================================================================
 Electrostatic potential at the Nuclei due to electrons and other nuclei
 =======================================================================
  
         Atom                  Potential
         ----                  ---------
     1)   C                  14.76889652
     2)   C                  14.76879103
     3)   C                  14.76874806
     4)   C                  14.76889742
     5)   C                  14.76879636
     6)   C                  14.76874132
     7)   H                   1.10109657
     8)   H                   1.10119045
     9)   H                   1.10157724
    10)   H                   1.10109260
    11)   H                   1.10116586
    12)   H                   1.10157563
 
 
 ========================
 No memory problems found
 ========================
 
 Maximum number of active allocate calls:        1279
 
 *******************************************************************************

                             A D F   E X I T
 NORMAL TERMINATION



 =================
 Timing Statistics
 =================
  
 Total Used :                     CPU=       42.60      System=        0.66     Elapsed=       44.11

 Calls  Section                     ( Mean, Percentage )
 ---------------------------------------------------------------------------------------------------
     3  ><      ................      0.00    0.00             0.00    0.61             0.00    0.01
     1  INIT    ................      0.55    1.30             0.00    0.02             0.56    1.28
     1  GEOMET  ................      0.04    0.10             0.01    0.94             0.05    0.11
     1  FRAGM   ................      0.02    0.04             0.02    3.09             0.04    0.08
     1  INPUTA  ................      0.00    0.01             0.00    0.00             0.00    0.01
     1  ATDEN   ................      0.00    0.00             0.00    0.67             0.00    0.01
     1  MAINSY  ................      0.02    0.05             0.01    1.19             0.03    0.07
     1  SYMFIT  ................      0.01    0.02             0.00    0.00             0.01    0.02
     1  CORORT  ................      0.00    0.00             0.00    0.21             0.00    0.00
     1  SYMORB  ................      0.00    0.00             0.00    0.38             0.00    0.01
     1  CLSMAT  ................      0.01    0.03             0.00    0.03             0.01    0.03
     1  ORTHON  ................      0.01    0.02             0.01    0.97             0.02    0.04
     1  GENPT   ................      0.13    0.30             0.01    0.84             0.13    0.30
     1  PTBAS   ................      0.10    0.23             0.00    0.00             0.10    0.22
    13  FOCKY   ................      0.31    9.40             0.00    5.81             0.32    9.46
    13  FOCKTR  ................      0.00    0.09             0.00    0.51             0.00    0.10
    13  SDIIS   ................      0.00    0.15             0.00    0.70             0.01    0.16
     1  COREPS  ................      0.24    0.57             0.00    0.00             0.24    0.55
     1  TOTEN   ................      1.05    2.48             0.01    1.80             1.07    2.43
     1  POPAN   ................      0.01    0.02             0.00    0.00             0.01    0.02
     1  DEBYE   ................      0.02    0.04             0.00    0.00             0.02    0.04
     1  INPUTE  ................      0.00    0.00             0.00    0.00             0.00    0.00
     1  SYMORE  ................      0.00    0.00             0.00    0.00             0.00    0.00
     1  METS    ................      0.00    0.00             0.00    0.00             0.00    0.00
     1  CETS    ................      0.01    0.03             0.00    0.00             0.01    0.03
     1  ELNRGY  ................      0.01    0.03             0.00    0.00             0.01    0.03
     1  POPUL   ................      0.01    0.03             0.00    0.00             0.01    0.03
     1  AORESPONSE .............     36.21   85.01             0.54   81.62            37.44   84.89
     1  EXIT PROCEDURE .........      0.02    0.06             0.00    0.60             0.03    0.07


 Currently Open Files (EXIT00)
 ====================

 Unit    Access Format  Status   Type       Ident (file)
 -------------------------------------------------------
   3      SEQ    FORM   TRANSP  NORMAL      LOGFILE
                                          ( logfile )

 ***************************************************************************************************
 (LOGFILE)
 <Sep29-2020> <15:15:20>  ADF 2019  RunTime: Sep29-2020 15:15:20  Nodes: 1  Procs: 1
 <Sep29-2020> <15:15:20>  Hydrogen (TZP)
 <Sep29-2020> <15:15:20>  RunType   : CREATE
 <Sep29-2020> <15:15:20>  Net Charge: 0 (Nuclei minus Electrons)
 <Sep29-2020> <15:15:20>  Symmetry  : ATOM
  Coordinates
    Atom         X           Y           Z   (Angstrom)
    1.H         0.000000    0.000000    0.000000
 <Sep29-2020> <15:15:20>  >>>> CORORT
 <Sep29-2020> <15:15:20>  >>>> CLSMAT
 <Sep29-2020> <15:15:20>  >>>> ORTHON
 <Sep29-2020> <15:15:20>  >>>> GENPT
 <Sep29-2020> <15:15:20>  Block Length=  64
 <Sep29-2020> <15:15:20>  >>>> PTBAS
 <Sep29-2020> <15:15:20>  >>>> CYCLE
 <Sep29-2020> <15:15:20>              |Error|         MaxErr       Wt(A-DIIS)
 <Sep29-2020> <15:15:20>      1      0.00000000      0.00000000
 <Sep29-2020> <15:15:20>      2      0.03052909      0.02968459
 <Sep29-2020> <15:15:20>      3      0.00718138      0.00670742    100.0
 <Sep29-2020> <15:15:20>      4      0.00117303      0.00114116      0.1
 <Sep29-2020> <15:15:20>      5      0.00002783      0.00002380      0.0
 <Sep29-2020> <15:15:20>      6      0.00000153      0.00000130      0.0
 <Sep29-2020> <15:15:20>      7      0.00000000      0.00000000      0.0
 <Sep29-2020> <15:15:21>  SCF converged
 <Sep29-2020> <15:15:21>      8      0.00000000      0.00000000      0.0
 <Sep29-2020> <15:15:21>  >>>> POPAN
 <Sep29-2020> <15:15:21>  >>>> DEBYE
 <Sep29-2020> <15:15:21>  NORMAL TERMINATION
 <Sep29-2020> <15:15:21>  END
 <Sep29-2020> <15:15:21>  ADF 2019  RunTime: Sep29-2020 15:15:21  Nodes: 1  Procs: 1
 <Sep29-2020> <15:15:21>  Carbon (TZP)
 <Sep29-2020> <15:15:21>  RunType   : CREATE
 <Sep29-2020> <15:15:21>  Net Charge: 0 (Nuclei minus Electrons)
 <Sep29-2020> <15:15:21>  Symmetry  : ATOM
  Coordinates
    Atom         X           Y           Z   (Angstrom)
    1.C         0.000000    0.000000    0.000000
 <Sep29-2020> <15:15:21>  >>>> CORORT
 <Sep29-2020> <15:15:21>  >>>> CLSMAT
 <Sep29-2020> <15:15:21>  >>>> ORTHON
 <Sep29-2020> <15:15:21>  >>>> GENPT
 <Sep29-2020> <15:15:21>  Block Length=  72
 <Sep29-2020> <15:15:21>  >>>> PTBAS
 <Sep29-2020> <15:15:21>  >>>> CYCLE
 <Sep29-2020> <15:15:21>              |Error|         MaxErr       Wt(A-DIIS)
 <Sep29-2020> <15:15:21>      1      0.00000000      0.00000000
 <Sep29-2020> <15:15:21>      2      4.48324754      3.31969244    100.0
 <Sep29-2020> <15:15:21>      3      1.61537707      1.30410194    100.0
 <Sep29-2020> <15:15:21>      4      0.72706284      0.59053131    100.0
 <Sep29-2020> <15:15:21>      5      0.40898688      0.33263800    100.0
 <Sep29-2020> <15:15:21>      6      0.13548919      0.10594416    100.0
 <Sep29-2020> <15:15:21>      7      0.11406432      0.09088019     90.8
 <Sep29-2020> <15:15:21>      8      0.01170325      0.00926551      8.3
 <Sep29-2020> <15:15:21>      9      0.00078015      0.00061791      0.0
 <Sep29-2020> <15:15:21>     10      0.00000178      0.00000107      0.0
 <Sep29-2020> <15:15:21>     11      0.00000024      0.00000019      0.0
 <Sep29-2020> <15:15:21>     12      0.00000000      0.00000000      0.0
 <Sep29-2020> <15:15:21>  SCF converged
 <Sep29-2020> <15:15:21>     13      0.00000000      0.00000000      0.0
 <Sep29-2020> <15:15:22>  >>>> POPAN
 <Sep29-2020> <15:15:22>  >>>> DEBYE
 <Sep29-2020> <15:15:22>  NORMAL TERMINATION
 <Sep29-2020> <15:15:22>  END
 <Sep29-2020> <15:15:22>  ADF 2019  RunTime: Sep29-2020 15:15:22  Nodes: 1  Procs: 6
 <Sep29-2020> <15:15:22>  None
 <Sep29-2020> <15:15:22>  RunType   : SINGLE POINT
 <Sep29-2020> <15:15:22>  Net Charge: 0 (Nuclei minus Electrons)
 <Sep29-2020> <15:15:22>  Symmetry  : NOSYM
 <Sep29-2020> <15:15:22>  >>>> FRAGM
  Coordinates
    Atom         X           Y           Z   (Angstrom)
    1.C         0.029853    4.000000   -1.398595
    2.C        -1.197079    4.000000   -0.725178
    3.C        -1.226774    4.000000    0.673573
    4.C        -0.029541    4.000000    1.398605
    5.C         1.196921    4.000000    0.725427
    6.C         1.226626    4.000000   -0.673832
    7.H        -2.131206    4.000000   -1.289691
    8.H        -2.184132    4.000000    1.197927
    9.H        -0.050815    4.000000    2.490148
   10.H         2.128968    4.000000    1.293357
   11.H         2.182158    4.000000   -1.201689
   12.H         0.055053    4.000000   -2.490052
 <Sep29-2020> <15:15:23>  >>>> CORORT
 <Sep29-2020> <15:15:23>  >>>> CLSMAT
 <Sep29-2020> <15:15:23>  >>>> ORTHON
 <Sep29-2020> <15:15:23>  >>>> GENPT
 <Sep29-2020> <15:15:23>  Block Length= 128
 <Sep29-2020> <15:15:23>  >>>> PTBAS
 <Sep29-2020> <15:15:23>  >>>> CYCLE
 <Sep29-2020> <15:15:23>              |Error|         MaxErr       Wt(A-DIIS)
 <Sep29-2020> <15:15:23>      1      5.99092394      0.98028076
 <Sep29-2020> <15:15:24>      2      0.89232152      0.18710702    100.0
 <Sep29-2020> <15:15:24>      3      0.52145169      0.10261003    100.0
 <Sep29-2020> <15:15:24>      4      0.74324777      0.17265539    100.0
 <Sep29-2020> <15:15:25>      5      0.07622335      0.01073049      9.8
 <Sep29-2020> <15:15:25>      6      0.01070956      0.00169611      0.7
 <Sep29-2020> <15:15:25>      7      0.00113657      0.00027336      0.0
 <Sep29-2020> <15:15:26>      8      0.00033252      0.00008365      0.0
 <Sep29-2020> <15:15:26>      9      0.00015876      0.00004217      0.0
 <Sep29-2020> <15:15:26>     10      0.00001810      0.00000427      0.0
 <Sep29-2020> <15:15:26>     11      0.00000510      0.00000123      0.0
 <Sep29-2020> <15:15:27>     12      0.00000027      0.00000004      0.0
 <Sep29-2020> <15:15:27>  SCF converged
 <Sep29-2020> <15:15:27>     13      0.00000004      0.00000001      0.0
 <Sep29-2020> <15:15:27>  >>>> TOTEN
 <Sep29-2020> <15:15:28>  >>>> POPAN
 <Sep29-2020> <15:15:28>  >>>> DEBYE
 <Sep29-2020> <15:15:28>  >>>> AMETS
 <Sep29-2020> <15:15:28>  >>>> POPUL
 <Sep29-2020> <15:15:29>     1 V(1)  0.1844026E+04
 <Sep29-2020> <15:15:29>     2 V(1)  0.1574249E+04
 <Sep29-2020> <15:15:30>     3 V(1)  0.1556947E+04
 <Sep29-2020> <15:15:30>     4 V(1)  0.1563500E+04
 <Sep29-2020> <15:15:31>     5 V(1)  0.1565456E+04
 <Sep29-2020> <15:15:31>     6 V(1)  0.1565341E+04
 <Sep29-2020> <15:15:32>     7 V(1)  0.1565283E+04
 <Sep29-2020> <15:15:32>     8 V(1)  0.1565277E+04
 <Sep29-2020> <15:15:32>     9 V(1)  0.1565273E+04
 <Sep29-2020> <15:15:33>    10 V(1)  0.1565271E+04
 <Sep29-2020> <15:15:33>   convergence reached
 <Sep29-2020> <15:15:33>     1 V(1)  0.2536232E+02
 <Sep29-2020> <15:15:34>     2 V(1)  0.2328902E+02
 <Sep29-2020> <15:15:34>     3 V(1)  0.2328368E+02
 <Sep29-2020> <15:15:34>     4 V(1)  0.2328293E+02
 <Sep29-2020> <15:15:35>     5 V(1)  0.2328281E+02
 <Sep29-2020> <15:15:35>     6 V(1)  0.2328284E+02
 <Sep29-2020> <15:15:35>   convergence reached
 <Sep29-2020> <15:15:36>     1 V(1)  0.1841817E+04
 <Sep29-2020> <15:15:36>     2 V(1)  0.1572255E+04
 <Sep29-2020> <15:15:37>     3 V(1)  0.1555002E+04
 <Sep29-2020> <15:15:37>     4 V(1)  0.1561543E+04
 <Sep29-2020> <15:15:38>     5 V(1)  0.1563499E+04
 <Sep29-2020> <15:15:38>     6 V(1)  0.1563384E+04
 <Sep29-2020> <15:15:38>     7 V(1)  0.1563327E+04
 <Sep29-2020> <15:15:39>     8 V(1)  0.1563320E+04
 <Sep29-2020> <15:15:39>     9 V(1)  0.1563316E+04
 <Sep29-2020> <15:15:40>    10 V(1)  0.1563314E+04
 <Sep29-2020> <15:15:40>   convergence reached
 <Sep29-2020> <15:15:40>     1 V(1)  0.1302743E+04
 <Sep29-2020> <15:15:41>     2 V(1)  0.1073672E+04
 <Sep29-2020> <15:15:41>     3 V(1)  0.1109250E+04
 <Sep29-2020> <15:15:42>     4 V(1)  0.1114414E+04
 <Sep29-2020> <15:15:42>     5 V(1)  0.1115367E+04
 <Sep29-2020> <15:15:43>     6 V(1)  0.1115827E+04
 <Sep29-2020> <15:15:43>     7 V(1)  0.1115873E+04
 <Sep29-2020> <15:15:44>     8 V(1)  0.1115874E+04
 <Sep29-2020> <15:15:44>   convergence reached
 <Sep29-2020> <15:15:44>     1 V(1)  0.1057865E+06
 <Sep29-2020> <15:15:45>     2 V(1)  0.8966085E+05
 <Sep29-2020> <15:15:45>     3 V(1)  0.8876538E+05
 <Sep29-2020> <15:15:46>     4 V(1)  0.8939162E+05
 <Sep29-2020> <15:15:46>     5 V(1)  0.8951049E+05
 <Sep29-2020> <15:15:47>     6 V(1)  0.8950265E+05
 <Sep29-2020> <15:15:47>     7 V(1)  0.8949938E+05
 <Sep29-2020> <15:15:48>     8 V(1)  0.8949893E+05
 <Sep29-2020> <15:15:48>     9 V(1)  0.8949862E+05
 <Sep29-2020> <15:15:49>    10 V(1)  0.8949854E+05
 <Sep29-2020> <15:15:49>   convergence reached
 <Sep29-2020> <15:15:49>     1 V(1)  0.6150952E+03
 <Sep29-2020> <15:15:50>     2 V(1)  0.4702786E+03
 <Sep29-2020> <15:15:50>     3 V(1)  0.4841163E+03
 <Sep29-2020> <15:15:50>     4 V(1)  0.4848485E+03
 <Sep29-2020> <15:15:51>     5 V(1)  0.4858284E+03
 <Sep29-2020> <15:15:51>     6 V(1)  0.4860108E+03
 <Sep29-2020> <15:15:52>     7 V(1)  0.4860290E+03
 <Sep29-2020> <15:15:52>     8 V(1)  0.4860301E+03
 <Sep29-2020> <15:15:52>     9 V(1)  0.4860284E+03
 <Sep29-2020> <15:15:53>    10 V(1)  0.4860282E+03
 <Sep29-2020> <15:15:53>   convergence reached
 <Sep29-2020> <15:15:53>     1 V(1)  0.2748734E+04
 <Sep29-2020> <15:15:54>     2 V(1)  0.2507396E+04
 <Sep29-2020> <15:15:54>     3 V(1)  0.2520131E+04
 <Sep29-2020> <15:15:55>     4 V(1)  0.2520556E+04
 <Sep29-2020> <15:15:55>     5 V(1)  0.2520556E+04
 <Sep29-2020> <15:15:55>   convergence reached
 <Sep29-2020> <15:15:56>     1 V(1)  0.1056602E+06
 <Sep29-2020> <15:15:56>     2 V(1)  0.8954731E+05
 <Sep29-2020> <15:15:57>     3 V(1)  0.8865455E+05
 <Sep29-2020> <15:15:57>     4 V(1)  0.8927987E+05
 <Sep29-2020> <15:15:58>     5 V(1)  0.8939866E+05
 <Sep29-2020> <15:15:59>     6 V(1)  0.8939086E+05
 <Sep29-2020> <15:15:59>     7 V(1)  0.8938761E+05
 <Sep29-2020> <15:16:00>     8 V(1)  0.8938714E+05
 <Sep29-2020> <15:16:00>     9 V(1)  0.8938682E+05
 <Sep29-2020> <15:16:01>    10 V(1)  0.8938674E+05
 <Sep29-2020> <15:16:01>   convergence reached
 <Sep29-2020> <15:16:01>     1 V(1)  0.1302415E+04
 <Sep29-2020> <15:16:02>     2 V(1)  0.1073504E+04
 <Sep29-2020> <15:16:02>     3 V(1)  0.1109067E+04
 <Sep29-2020> <15:16:03>     4 V(1)  0.1114225E+04
 <Sep29-2020> <15:16:03>     5 V(1)  0.1115186E+04
 <Sep29-2020> <15:16:03>     6 V(1)  0.1115648E+04
 <Sep29-2020> <15:16:04>     7 V(1)  0.1115694E+04
 <Sep29-2020> <15:16:04>     8 V(1)  0.1115695E+04
 <Sep29-2020> <15:16:05>     9 V(1)  0.1115693E+04
 <Sep29-2020> <15:16:05>    10 V(1)  0.1115691E+04
 <Sep29-2020> <15:16:06>    11 V(1)  0.1115691E+04
 <Sep29-2020> <15:16:06>   convergence reached
 <Sep29-2020> <15:16:06>  NORMAL TERMINATION
 <Sep29-2020> <15:16:06>  END
