

 Parallel Execution: Process Information
 ==============================================================================
 Rank   Node Name                              NodeID   MyNodeRank  NodeMaster
    0   magnesium.science.psu.edu                 0          0          0
    1   magnesium.science.psu.edu                 0          1         -1
    2   magnesium.science.psu.edu                 0          2         -1
    3   magnesium.science.psu.edu                 0          3         -1
    4   magnesium.science.psu.edu                 0          4         -1
    5   magnesium.science.psu.edu                 0          5         -1
 ==============================================================================


May use up to 7495MB of RAM as shared memory on node 0
 
TITLE None

ATOMS
1  C     0.02972116    4.00000000   -1.39798108
2  C    -1.19656622    4.00000000   -0.72549573
3  C    -1.22718138    4.00000000    0.67355188
4  C    -0.02967884    4.00000000    1.39921892
5  C     1.19743378    4.00000000    0.72510427
6  C     1.22621862    4.00000000   -0.67384283
7  H    -2.12850773    4.00000000   -1.29357366
8  H    -2.18457589    4.00000000    1.19790091
9  H    -0.05279369    4.00000000    2.49076653
10 H     2.13169756    4.00000000    1.28941576
11 H     2.18172411    4.00000000   -1.20169909
12 H     0.05311160    4.00000000   -2.48943347
END

XC
 gga BP86
end

symmetry nosym

aoresponse
 alda
 frequency 1 3.6 eV
 lifetime 0.0037
 El_Dipole_El_Dipole
 El_Dipole_El_Quadrupole
 El_Quadrupole_El_Quadrupole
 Traceless
end

Fragments
H t21.H
C t21.C
End

 *******************************************************************************
 *                                                                             *
 *  -------------------------------------                                      *
 *   Amsterdam Density Functional  (ADF)         2019                          *
 *  -------------------------------------                                      *
 *                                               r75281 2019-06-03             *
 *                                                                             *
 *                                                                             *
 *                              =================                              *
 *                              |               |                              *
 *                              |     A D F     |                              *
 *                              |               |                              *
 *                              =================                              *
 *                                                                             *
 *                                                                             *
 *   Online information and documentation:  https://www.scm.com/support/       *
 *   E-mail:  support@scm.com   info@scm.com                                   *
 *                                                                             *
 *   Scientific publications using ADF results must be properly referenced     *
 *   See the User Manuals (or the web site) for recommended citations          *
 *   The terms and conditions of the End User License Agreement apply to       *
 *   the use of ADF, https://www.scm.com/license-terms/                        *
 *                                                                             *
 **********************  x86_64_linux_intel / intelmpi  ************************
 
 Licensed to: Prof. Lasse Jensen / Penn State University / University Park / PA  / USA
 SCM User ID: u8493
  
 ADF 2019  RunTime: Sep29-2020 15:12:26  Nodes: 1  Procs: 6

 Temporary files are created in /scratch/kid_0.238676242


Communication costs MPI_COMM_WORLD:      0.369 usec per message,   0.0073 usec per 8-byte item
Communication costs for intra-node:      0.388 usec per message,   0.0066 usec per 8-byte item

 None



 ===========================
 A T T A C H E D   F I L E S
 ===========================
  



 ===============================
 M O D E L   P A R A M E T E R S
 ===============================
  
 DENSITY FUNCTIONAL POTENTIAL (scf)
    LDA:                               VWN                                      
    Gradient Corrections:              Becke88 Perdew86                        == Not Default ==

 SPIN  (restricted / unrestr.)
    Molecule:                          Restricted                               
    Fragments:                         Restricted                               

 OTHER ASPECTS
    Relativistic Corrections:          ---                                      

    Nuclear Charge Density Model:      Point Charge Nuclei                      
    Core Treatment:                    Frozen Orbital(s)                        

    Hyperfine or Zeeman Interaction:   ---                                      


 Fragment File(s)
 ----------------
 C:
         file : t21.C
         jobid: ADF 2019  RunTime: Sep29-2020 15:12:25  Nodes: 1  Procs: 1
         title: Carbon (TZP)
 H:
         file : t21.H
         jobid: ADF 2019  RunTime: Sep29-2020 15:12:25  Nodes: 1  Procs: 1
         title: Hydrogen (TZP)



                                        ************************************
                                        *  R U N   T Y P E : SINGLE POINT  *
                                        ************************************
  



 ===============
 G E O M E T R Y  ***  Planar Molecule  ***
 ===============
  

 ATOMS
 =====                            X Y Z                    CHARGE
                                (Angstrom)             Nucl     +Core       At.Mass
                       --------------------------    ----------------       -------
    1  C               0.0297    4.0000   -1.3980      6.00      6.00       12.0000
    2  C              -1.1966    4.0000   -0.7255      6.00      6.00       12.0000
    3  C              -1.2272    4.0000    0.6736      6.00      6.00       12.0000
    4  C              -0.0297    4.0000    1.3992      6.00      6.00       12.0000
    5  C               1.1974    4.0000    0.7251      6.00      6.00       12.0000
    6  C               1.2262    4.0000   -0.6738      6.00      6.00       12.0000
    7  H              -2.1285    4.0000   -1.2936      1.00      1.00        1.0078
    8  H              -2.1846    4.0000    1.1979      1.00      1.00        1.0078
    9  H              -0.0528    4.0000    2.4908      1.00      1.00        1.0078
   10  H               2.1317    4.0000    1.2894      1.00      1.00        1.0078
   11  H               2.1817    4.0000   -1.2017      1.00      1.00        1.0078
   12  H               0.0531    4.0000   -2.4894      1.00      1.00        1.0078


 FRAGMENTS
 =========                                     Atoms in this Fragment     Cart. coord.s (Angstrom)
                                               -------------------------------------------------------
    1  C                                                 1  C            0.0297    4.0000   -1.3980
    2  C                                                 2  C           -1.1966    4.0000   -0.7255
    3  C                                                 3  C           -1.2272    4.0000    0.6736
    4  C                                                 4  C           -0.0297    4.0000    1.3992
    5  C                                                 5  C            1.1974    4.0000    0.7251
    6  C                                                 6  C            1.2262    4.0000   -0.6738
    7  H                                                 7  H           -2.1285    4.0000   -1.2936
    8  H                                                 8  H           -2.1846    4.0000    1.1979
    9  H                                                 9  H           -0.0528    4.0000    2.4908
   10  H                                                10  H            2.1317    4.0000    1.2894
   11  H                                                11  H            2.1817    4.0000   -1.2017
   12  H                                                12  H            0.0531    4.0000   -2.4894


 Interatomic Distance Matrix (Angstrom)
 --------------------------------------

   1)     0.000
   2)     1.399   0.000
   3)     2.423   1.399   0.000
   4)     2.798   2.424   1.400   0.000
   5)     2.423   2.799   2.425   1.400   0.000
   6)     1.399   2.423   2.799   2.424   1.399   0.000
   7)     2.161   1.091   2.164   3.414   3.891   3.411   0.000
   8)     3.412   2.162   1.092   2.164   3.415   3.891   2.492   0.000
   9)     3.890   3.414   2.164   1.092   2.163   3.413   4.316   2.493   0.000
  10)     3.412   3.891   3.415   2.164   1.091   2.162   4.982   4.317   2.493   0.000
  11)     2.161   3.412   3.891   3.414   2.164   1.092   4.311   4.982   4.316   2.492
          0.000
  12)     1.092   2.162   3.412   3.890   3.412   2.162   2.488   4.313   4.981   4.313
          2.488   0.000

 Min. Distance =    1.0914
 Max. Distance =    4.9822



 =====================================
 S Y M M E T R Y ,   E L E C T R O N S
 =====================================
  
 Symmetry: NOSYM

 Irreducible Representations, including subspecies
 -------------------------------------------------
 A


 Configuration of Valence Electrons
 ==================================
 ( determined in the SCF procedure )

 Total:   42

 Net Charge: 0 (Nuclei minus Electrons)

 Aufbau principle for MO occupations will be applied through SCF cycle no.     150
 Thereafter, the program will assign electrons to MOs that are spatially
 similar to the occupied MOs in a "reference" cycle ("KeepOrbitals").
 The reference cycle is always the PREVIOUS cycle: it will evolve with
 the SCF procedure.
1
 ***************************************************************************************************



                                      ****************************************
                                      *  B U I L D : (Fragments, Functions)  *
                                      ****************************************
  



 =======
 S F O s  ***  (Symmetrized Fragment Orbitals)  ***
 =======
  
 SFOs are linear combinations of (valence) Fragment Orbitals (FOs), such that the SFOs transform as the
 irreducible representations of the (molecular) symmetry group. Each SFO is therefore characterized by
 an irrep of the molecule and by a few (or only one) generating FOs.
 The SFOs constitute a symmetry-adapted basis for the Fock matrix. The MO eigenvector coefficients in
 this basis provide a direct interpretation of the MOs in terms of Frontier Orbital Theory.

 The SFOs are combined with auxiliary Core Functions (CFs) to ensure orthogonalization on the (frozen)
 Core Orbitals (COs). The Core-orthogonalized SFOs (CSFOs) constitute the true Fock basis.

 The FOs, and hence also the (C)SFOs are combinations of the elementary basis functions (BAS). The basis
 functions that participate in the description of the SFOs depend on the irrep. The indices of the
 involved functions are printed below for each irrep.
 (The complete list of primitive basis functions is printed in another section)

 Total nr. of (C)SFOs (summation over all irreps) :   150

 NOTE: a (C)SFO that is defined as a combination of more than one FO is usually NOT normalized.



                                       === A ===
 Nr. of SFOs :  150
 Cartesian basis functions that participate in this irrep (total number =   156) :
      1     2     3     4     5     6     9    12     7    10
     13     8    11    14    15    16    17    18    19    20
     21    22    23    24    25    26    29    32    27    30
     33    28    31    34    35    36    37    38    39    40
     41    42    43    44    45    46    49    52    47    50
     53    48    51    54    55    56    57    58    59    60
     61    62    63    64    65    66    69    72    67    70
     73    68    71    74    75    76    77    78    79    80
     81    82    83    84    85    86    89    92    87    90
     93    88    91    94    95    96    97    98    99   100
    101   102   103   104   105   106   109   112   107   110
    113   108   111   114   115   116   117   118   119   120
    121   122   123   124   125   126   127   128   129   130
    131   132   133   134   135   136   137   138   139   140
    141   142   143   144   145   146   147   148   149   150
    151   152   153   154   155   156

    SFO  (index         Fragment          Generating    Expansion in Fragment Orbitals
  indx  incl.CFs)   Occup   Orb.Energy   FragmentType  Coeff.   Orbital     on Fragment
 --------------------------------------------------------------------------------------
     1       1      2.000     -10.058 au  C             1.00      1 S               1
                        (    -273.681 eV)
     2       2      2.000      -0.510 au  C             1.00      2 S               1
                        (     -13.876 eV)
     3       3       --         0.371 au  C             1.00      3 S               1
                        (      10.091 eV)
     4       4       --         5.428 au  C             1.00      4 S               1
                        (     147.707 eV)
     5       5       --        50.181 au  C             1.00      5 S               1
                        (    1365.486 eV)
     6       6      0.667      -0.199 au  C             1.00      1 P:x             1
                        (      -5.403 eV)
     7       7       --         0.173 au  C             1.00      2 P:x             1
                        (       4.709 eV)
     8       8       --         2.026 au  C             1.00      3 P:x             1
                        (      55.143 eV)
     9       9      0.667      -0.199 au  C             1.00      1 P:y             1
                        (      -5.403 eV)
    10      10       --         0.173 au  C             1.00      2 P:y             1
                        (       4.709 eV)
    11      11       --         2.026 au  C             1.00      3 P:y             1
                        (      55.143 eV)
    12      12      0.667      -0.199 au  C             1.00      1 P:z             1
                        (      -5.403 eV)
    13      13       --         0.173 au  C             1.00      2 P:z             1
                        (       4.709 eV)
    14      14       --         2.026 au  C             1.00      3 P:z             1
                        (      55.143 eV)
    15      15       --         1.232 au  C             1.00      1 D:z2            1
                        (      33.528 eV)
    16      16       --         1.232 au  C             1.00      1 D:x2-y2         1
                        (      33.528 eV)
    17      17       --         1.232 au  C             1.00      1 D:xy            1
                        (      33.528 eV)
    18      18       --         1.232 au  C             1.00      1 D:xz            1
                        (      33.528 eV)
    19      19       --         1.232 au  C             1.00      1 D:yz            1
                        (      33.528 eV)
    20      20      2.000     -10.058 au  C             1.00      1 S               2
                        (    -273.681 eV)
    21      21      2.000      -0.510 au  C             1.00      2 S               2
                        (     -13.876 eV)
    22      22       --         0.371 au  C             1.00      3 S               2
                        (      10.091 eV)
    23      23       --         5.428 au  C             1.00      4 S               2
                        (     147.707 eV)
    24      24       --        50.181 au  C             1.00      5 S               2
                        (    1365.486 eV)
    25      25      0.667      -0.199 au  C             1.00      1 P:x             2
                        (      -5.403 eV)
    26      26       --         0.173 au  C             1.00      2 P:x             2
                        (       4.709 eV)
    27      27       --         2.026 au  C             1.00      3 P:x             2
                        (      55.143 eV)
    28      28      0.667      -0.199 au  C             1.00      1 P:y             2
                        (      -5.403 eV)
    29      29       --         0.173 au  C             1.00      2 P:y             2
                        (       4.709 eV)
    30      30       --         2.026 au  C             1.00      3 P:y             2
                        (      55.143 eV)
    31      31      0.667      -0.199 au  C             1.00      1 P:z             2
                        (      -5.403 eV)
    32      32       --         0.173 au  C             1.00      2 P:z             2
                        (       4.709 eV)
    33      33       --         2.026 au  C             1.00      3 P:z             2
                        (      55.143 eV)
    34      34       --         1.232 au  C             1.00      1 D:z2            2
                        (      33.528 eV)
    35      35       --         1.232 au  C             1.00      1 D:x2-y2         2
                        (      33.528 eV)
    36      36       --         1.232 au  C             1.00      1 D:xy            2
                        (      33.528 eV)
    37      37       --         1.232 au  C             1.00      1 D:xz            2
                        (      33.528 eV)
    38      38       --         1.232 au  C             1.00      1 D:yz            2
                        (      33.528 eV)
    39      39      2.000     -10.058 au  C             1.00      1 S               3
                        (    -273.681 eV)
    40      40      2.000      -0.510 au  C             1.00      2 S               3
                        (     -13.876 eV)
    41      41       --         0.371 au  C             1.00      3 S               3
                        (      10.091 eV)
    42      42       --         5.428 au  C             1.00      4 S               3
                        (     147.707 eV)
    43      43       --        50.181 au  C             1.00      5 S               3
                        (    1365.486 eV)
    44      44      0.667      -0.199 au  C             1.00      1 P:x             3
                        (      -5.403 eV)
    45      45       --         0.173 au  C             1.00      2 P:x             3
                        (       4.709 eV)
    46      46       --         2.026 au  C             1.00      3 P:x             3
                        (      55.143 eV)
    47      47      0.667      -0.199 au  C             1.00      1 P:y             3
                        (      -5.403 eV)
    48      48       --         0.173 au  C             1.00      2 P:y             3
                        (       4.709 eV)
    49      49       --         2.026 au  C             1.00      3 P:y             3
                        (      55.143 eV)
    50      50      0.667      -0.199 au  C             1.00      1 P:z             3
                        (      -5.403 eV)
    51      51       --         0.173 au  C             1.00      2 P:z             3
                        (       4.709 eV)
    52      52       --         2.026 au  C             1.00      3 P:z             3
                        (      55.143 eV)
    53      53       --         1.232 au  C             1.00      1 D:z2            3
                        (      33.528 eV)
    54      54       --         1.232 au  C             1.00      1 D:x2-y2         3
                        (      33.528 eV)
    55      55       --         1.232 au  C             1.00      1 D:xy            3
                        (      33.528 eV)
    56      56       --         1.232 au  C             1.00      1 D:xz            3
                        (      33.528 eV)
    57      57       --         1.232 au  C             1.00      1 D:yz            3
                        (      33.528 eV)
    58      58      2.000     -10.058 au  C             1.00      1 S               4
                        (    -273.681 eV)
    59      59      2.000      -0.510 au  C             1.00      2 S               4
                        (     -13.876 eV)
    60      60       --         0.371 au  C             1.00      3 S               4
                        (      10.091 eV)
    61      61       --         5.428 au  C             1.00      4 S               4
                        (     147.707 eV)
    62      62       --        50.181 au  C             1.00      5 S               4
                        (    1365.486 eV)
    63      63      0.667      -0.199 au  C             1.00      1 P:x             4
                        (      -5.403 eV)
    64      64       --         0.173 au  C             1.00      2 P:x             4
                        (       4.709 eV)
    65      65       --         2.026 au  C             1.00      3 P:x             4
                        (      55.143 eV)
    66      66      0.667      -0.199 au  C             1.00      1 P:y             4
                        (      -5.403 eV)
    67      67       --         0.173 au  C             1.00      2 P:y             4
                        (       4.709 eV)
    68      68       --         2.026 au  C             1.00      3 P:y             4
                        (      55.143 eV)
    69      69      0.667      -0.199 au  C             1.00      1 P:z             4
                        (      -5.403 eV)
    70      70       --         0.173 au  C             1.00      2 P:z             4
                        (       4.709 eV)
    71      71       --         2.026 au  C             1.00      3 P:z             4
                        (      55.143 eV)
    72      72       --         1.232 au  C             1.00      1 D:z2            4
                        (      33.528 eV)
    73      73       --         1.232 au  C             1.00      1 D:x2-y2         4
                        (      33.528 eV)
    74      74       --         1.232 au  C             1.00      1 D:xy            4
                        (      33.528 eV)
    75      75       --         1.232 au  C             1.00      1 D:xz            4
                        (      33.528 eV)
    76      76       --         1.232 au  C             1.00      1 D:yz            4
                        (      33.528 eV)
    77      77      2.000     -10.058 au  C             1.00      1 S               5
                        (    -273.681 eV)
    78      78      2.000      -0.510 au  C             1.00      2 S               5
                        (     -13.876 eV)
    79      79       --         0.371 au  C             1.00      3 S               5
                        (      10.091 eV)
    80      80       --         5.428 au  C             1.00      4 S               5
                        (     147.707 eV)
    81      81       --        50.181 au  C             1.00      5 S               5
                        (    1365.486 eV)
    82      82      0.667      -0.199 au  C             1.00      1 P:x             5
                        (      -5.403 eV)
    83      83       --         0.173 au  C             1.00      2 P:x             5
                        (       4.709 eV)
    84      84       --         2.026 au  C             1.00      3 P:x             5
                        (      55.143 eV)
    85      85      0.667      -0.199 au  C             1.00      1 P:y             5
                        (      -5.403 eV)
    86      86       --         0.173 au  C             1.00      2 P:y             5
                        (       4.709 eV)
    87      87       --         2.026 au  C             1.00      3 P:y             5
                        (      55.143 eV)
    88      88      0.667      -0.199 au  C             1.00      1 P:z             5
                        (      -5.403 eV)
    89      89       --         0.173 au  C             1.00      2 P:z             5
                        (       4.709 eV)
    90      90       --         2.026 au  C             1.00      3 P:z             5
                        (      55.143 eV)
    91      91       --         1.232 au  C             1.00      1 D:z2            5
                        (      33.528 eV)
    92      92       --         1.232 au  C             1.00      1 D:x2-y2         5
                        (      33.528 eV)
    93      93       --         1.232 au  C             1.00      1 D:xy            5
                        (      33.528 eV)
    94      94       --         1.232 au  C             1.00      1 D:xz            5
                        (      33.528 eV)
    95      95       --         1.232 au  C             1.00      1 D:yz            5
                        (      33.528 eV)
    96      96      2.000     -10.058 au  C             1.00      1 S               6
                        (    -273.681 eV)
    97      97      2.000      -0.510 au  C             1.00      2 S               6
                        (     -13.876 eV)
    98      98       --         0.371 au  C             1.00      3 S               6
                        (      10.091 eV)
    99      99       --         5.428 au  C             1.00      4 S               6
                        (     147.707 eV)
   100     100       --        50.181 au  C             1.00      5 S               6
                        (    1365.486 eV)
   101     101      0.667      -0.199 au  C             1.00      1 P:x             6
                        (      -5.403 eV)
   102     102       --         0.173 au  C             1.00      2 P:x             6
                        (       4.709 eV)
   103     103       --         2.026 au  C             1.00      3 P:x             6
                        (      55.143 eV)
   104     104      0.667      -0.199 au  C             1.00      1 P:y             6
                        (      -5.403 eV)
   105     105       --         0.173 au  C             1.00      2 P:y             6
                        (       4.709 eV)
   106     106       --         2.026 au  C             1.00      3 P:y             6
                        (      55.143 eV)
   107     107      0.667      -0.199 au  C             1.00      1 P:z             6
                        (      -5.403 eV)
   108     108       --         0.173 au  C             1.00      2 P:z             6
                        (       4.709 eV)
   109     109       --         2.026 au  C             1.00      3 P:z             6
                        (      55.143 eV)
   110     110       --         1.232 au  C             1.00      1 D:z2            6
                        (      33.528 eV)
   111     111       --         1.232 au  C             1.00      1 D:x2-y2         6
                        (      33.528 eV)
   112     112       --         1.232 au  C             1.00      1 D:xy            6
                        (      33.528 eV)
   113     113       --         1.232 au  C             1.00      1 D:xz            6
                        (      33.528 eV)
   114     114       --         1.232 au  C             1.00      1 D:yz            6
                        (      33.528 eV)
   115     115      1.000      -0.244 au  H             1.00      1 S               7
                        (      -6.626 eV)
   116     116       --         0.093 au  H             1.00      2 S               7
                        (       2.536 eV)
   117     117       --         1.515 au  H             1.00      3 S               7
                        (      41.236 eV)
   118     118       --         0.400 au  H             1.00      1 P:x             7
                        (      10.872 eV)
   119     119       --         0.400 au  H             1.00      1 P:y             7
                        (      10.872 eV)
   120     120       --         0.400 au  H             1.00      1 P:z             7
                        (      10.872 eV)
   121     121      1.000      -0.244 au  H             1.00      1 S               8
                        (      -6.626 eV)
   122     122       --         0.093 au  H             1.00      2 S               8
                        (       2.536 eV)
   123     123       --         1.515 au  H             1.00      3 S               8
                        (      41.236 eV)
   124     124       --         0.400 au  H             1.00      1 P:x             8
                        (      10.872 eV)
   125     125       --         0.400 au  H             1.00      1 P:y             8
                        (      10.872 eV)
   126     126       --         0.400 au  H             1.00      1 P:z             8
                        (      10.872 eV)
   127     127      1.000      -0.244 au  H             1.00      1 S               9
                        (      -6.626 eV)
   128     128       --         0.093 au  H             1.00      2 S               9
                        (       2.536 eV)
   129     129       --         1.515 au  H             1.00      3 S               9
                        (      41.236 eV)
   130     130       --         0.400 au  H             1.00      1 P:x             9
                        (      10.872 eV)
   131     131       --         0.400 au  H             1.00      1 P:y             9
                        (      10.872 eV)
   132     132       --         0.400 au  H             1.00      1 P:z             9
                        (      10.872 eV)
   133     133      1.000      -0.244 au  H             1.00      1 S              10
                        (      -6.626 eV)
   134     134       --         0.093 au  H             1.00      2 S              10
                        (       2.536 eV)
   135     135       --         1.515 au  H             1.00      3 S              10
                        (      41.236 eV)
   136     136       --         0.400 au  H             1.00      1 P:x            10
                        (      10.872 eV)
   137     137       --         0.400 au  H             1.00      1 P:y            10
                        (      10.872 eV)
   138     138       --         0.400 au  H             1.00      1 P:z            10
                        (      10.872 eV)
   139     139      1.000      -0.244 au  H             1.00      1 S              11
                        (      -6.626 eV)
   140     140       --         0.093 au  H             1.00      2 S              11
                        (       2.536 eV)
   141     141       --         1.515 au  H             1.00      3 S              11
                        (      41.236 eV)
   142     142       --         0.400 au  H             1.00      1 P:x            11
                        (      10.872 eV)
   143     143       --         0.400 au  H             1.00      1 P:y            11
                        (      10.872 eV)
   144     144       --         0.400 au  H             1.00      1 P:z            11
                        (      10.872 eV)
   145     145      1.000      -0.244 au  H             1.00      1 S              12
                        (      -6.626 eV)
   146     146       --         0.093 au  H             1.00      2 S              12
                        (       2.536 eV)
   147     147       --         1.515 au  H             1.00      3 S              12
                        (      41.236 eV)
   148     148       --         0.400 au  H             1.00      1 P:x            12
                        (      10.872 eV)
   149     149       --         0.400 au  H             1.00      1 P:y            12
                        (      10.872 eV)
   150     150       --         0.400 au  H             1.00      1 P:z            12
                        (      10.872 eV)



 ================================
 (Slater-type)  F U N C T I O N S  ***  (Basis and Fit)  ***
 ================================
  

 Atom Type    1  (C)
 ==============

 Valence Basis Sets:   9
 -----------------------
   1 S    7.680000
   1 S    5.000000
   2 S    1.280000
   2 S    2.100000
   2 S    4.600000
   2 P    0.820000
   2 P    1.480000
   2 P    2.940000
   3 D    2.200000

 Atom Type    2  (H)
 ==============

 Valence Basis Sets:   4
 -----------------------
   1 S    0.690000
   1 S    0.920000
   1 S    1.580000
   2 P    1.250000


 BAS: List of all Elementary Cartesian Basis Functions
 =====================================================

 The numbering in the list below (to the right of the function characteristics) is referred
 to in print-outs of MO eigenvectors and Mulliken populations in the BAS representation
 (as contrasted to the SFO representation).

 Notes:
 1. The functions are characterized by a polynomial prefactor (powers of x,y,z and r) and
    an exponential decay factor alpha.
 2. Since the basis sets are specific for an atom TYPE, the individual functions occur on
    all atoms of that type.
 3. The word 'Core' in the left margin signals that it is a Core Function (CF) : not a
    degree of freedom in the valence set, but only used to ensure orthogonalization of
    the other valence basis functions on the frozen Core Orbitals.


 (power of) X  Y  Z  R     Alpha  on Atom
            ==========     =====     ==========

 C                                    1    2    3    4    5    6
                                  ---------------------------------------------------------------------------
            0  0  0  0     7.680      1   21   41   61   81  101
            0  0  0  0     5.000      2   22   42   62   82  102
            0  0  0  1     1.280      3   23   43   63   83  103
            0  0  0  1     2.100      4   24   44   64   84  104
            0  0  0  1     4.600      5   25   45   65   85  105
            1  0  0  0     0.820      6   26   46   66   86  106
            0  1  0  0     0.820      7   27   47   67   87  107
            0  0  1  0     0.820      8   28   48   68   88  108
            1  0  0  0     1.480      9   29   49   69   89  109
            0  1  0  0     1.480     10   30   50   70   90  110
            0  0  1  0     1.480     11   31   51   71   91  111
            1  0  0  0     2.940     12   32   52   72   92  112
            0  1  0  0     2.940     13   33   53   73   93  113
            0  0  1  0     2.940     14   34   54   74   94  114
            2  0  0  0     2.200     15   35   55   75   95  115
            1  1  0  0     2.200     16   36   56   76   96  116
            1  0  1  0     2.200     17   37   57   77   97  117
            0  2  0  0     2.200     18   38   58   78   98  118
            0  1  1  0     2.200     19   39   59   79   99  119
            0  0  2  0     2.200     20   40   60   80  100  120

 H                                    7    8    9   10   11   12
                                  ---------------------------------------------------------------------------
            0  0  0  0     0.690    121  127  133  139  145  151
            0  0  0  0     0.920    122  128  134  140  146  152
            0  0  0  0     1.580    123  129  135  141  147  153
            1  0  0  0     1.250    124  130  136  142  148  154
            0  1  0  0     1.250    125  131  137  143  149  155
            0  0  1  0     1.250    126  132  138  144  150  156

 Total number of charge fitting functions (nprimf)       804
 Total number of Cartesian basis functions (naos)        156
 Total number of Cartesian core functions  (ncos)          0

1
 ***************************************************************************************************



                                              ***********************
                                              *  T E C H N I C A L  *
                                              ***********************
  



 =============================================================
 P A R A L L E L I Z A T I O N  and  V E C T O R I Z A T I O N
 =============================================================
  
 Nr of parallel processes:                                6
 Maximum vector length in NumInt loops:                 128



 =====================
 S C F   U P D A T E S
 =====================
  
 Max. nr. of cycles:                               300
 Convergence criterion:                              0.0000010000
   secondary criterion:                              0.0010000000

 Mix parameter (when DIIS does not apply):           0.2000000000
 Mixed ADIIS+SDIIS will be used                  
    Max number of expansion vectors:                10
    Pure ADIIS when Max([F,P]) is above              0.1000000000
    Pure SDIIS when Max([F,P]) is below              0.0010000000
 Automatic ElectronSmearing (in case of problematic SCF convergence) disabled



 =================
 P R E C I S I O N  ***  (General: NumInt, NeglectFunctionTails, ...)  ***
 =================
  

 NumInt:           Target precision:                 4.0000000000
 -------           Initial precision:                4.0000000000
                   Min. precision (optimization):    4.0000000000

 Neglect Functions:          Basis functions:        0.1000000000E-13
 ------------------          Fit functions:          0.1000000000E-13



 ===========================
 L I N E A R   S C A L I N G
 ===========================
  

 Cut-off radii density fit:                        0.1000000000E-07
 Overlap cut-off criterion AO matrix elements:     0.1000000000E-05
 Cut-offs for Coulomb potential and fitted density:0.1000000000E-07
 Cut-off criterion for Coulomb multipole terms:    0.1000000000E-07
 Progressive Convergence parameter:                 0.000000000    
1
 ***************************************************************************************************



                                            ***************************
                                            *  C O M P U T A T I O N  *
                                            ***************************
  

 Number of elements of the density matrix on this node (used, total):      1962     12246



 ===========================================
 Numerical Integration : Fuzzy Cells (Becke)
 ===========================================
  
 Becke grid quality: NORMAL         
  
 Lebedev angular grid order:             min:  11 max:  23
 Nr. of radial points:                   min:  46 max:  52

 Total nr. of points:      75658
 Nr. of blocks:              592
 Block length:               128
 Nr. of dummy points:        118


 Test of Precision of the Numerical Integration Grid
 ===================================================

 Integral of the Total Core Density:                   0.00000000000000



 ========================
 Density Fitting (zlmFit)
 ========================
  
 ZlmFit Fit Quality: NORMAL         
  
 Max L-expansion:                        min:   5 max:   6
 Nr. of radial interpolation points:     min:  36 max:  48



 =====
 S C F  ***  ScaSCF  ***
 =====
  
 Initial density matrix is calculated as sum of fragments

 CYCLE    1
 SCF Error: norm([F,P])=      5.990939314413, max([F,P])=      0.980635275614
 orbitals (Q,E):
 ---------------
 A :12...31          ( 2.00    -0.6583)  ( 2.00    -0.6250)  ( 2.00    -0.5884)  ( 2.00    -0.5691)
                     ( 2.00    -0.5689)  ( 2.00    -0.5031)  ( 2.00    -0.5016)  ( 2.00    -0.5015)
                     ( 2.00    -0.4055)  ( 2.00    -0.4055)  ( 0.00    -0.2151)  ( 0.00    -0.2151)
                     ( 0.00    -0.0768)  ( 0.00    -0.0731)  ( 0.00    -0.0375)  ( 0.00    -0.0375)
                     ( 0.00    -0.0111)  ( 0.00    -0.0111)  ( 0.00     0.0270)  ( 0.00     0.0510)

 CYCLE    2
   MIX coefficients:  0.8000  0.2000
 SCF Error: norm([F,P])=      0.892329128959, max([F,P])=      0.187627568811
 orbitals (Q,E):
 ---------------
 A :12...22          ( 2.00    -0.5946)  ( 2.00    -0.5421)  ( 2.00    -0.5328)  ( 2.00    -0.5022)
                     ( 2.00    -0.5020)  ( 2.00    -0.4366)  ( 2.00    -0.4344)  ( 2.00    -0.4343)
                     ( 2.00    -0.3389)  ( 2.00    -0.3388)  ( 0.00    -0.1501)

 CYCLE    3
  SDIIS (wt  0.000): -1.2669  2.2669
 A-DIIS (wt  1.000):  0.0000  1.0000
  DIIS coefficients:  0.0000  1.0000
 SCF Error: norm([F,P])=      0.521453474118, max([F,P])=      0.102777200552
 orbitals (Q,E):
 ---------------
 A :12...22          ( 2.00    -0.3985)  ( 2.00    -0.3564)  ( 2.00    -0.2966)  ( 2.00    -0.2964)
                     ( 2.00    -0.2951)  ( 2.00    -0.2475)  ( 2.00    -0.2227)  ( 2.00    -0.2227)
                     ( 2.00    -0.1499)  ( 2.00    -0.1498)  ( 0.00     0.0285)

 CYCLE    4
  SDIIS (wt  0.000):  0.1837  0.3521  0.4642
 A-DIIS (wt  1.000): -0.0000  0.6402  0.3598
  DIIS coefficients: -0.0000  0.6402  0.3598
 SCF Error: norm([F,P])=      0.743253002422, max([F,P])=      0.173014418437
 orbitals (Q,E):
 ---------------
 A :12...22          ( 2.00    -0.4673)  ( 2.00    -0.4037)  ( 2.00    -0.3933)  ( 2.00    -0.3709)
                     ( 2.00    -0.3706)  ( 2.00    -0.3293)  ( 2.00    -0.2970)  ( 2.00    -0.2969)
                     ( 2.00    -0.2286)  ( 2.00    -0.2286)  ( 0.00    -0.0404)

 CYCLE    5
  SDIIS (wt  0.901): -0.0173  0.2160  0.0732  0.7280
 A-DIIS (wt  0.099):  0.0000  0.0000  0.0000  1.0000
  DIIS coefficients: -0.0156  0.1946  0.0660  0.7550
 SCF Error: norm([F,P])=      0.076226094092, max([F,P])=      0.010799057603
 orbitals (Q,E):
 ---------------
 A :12...22          ( 2.00    -0.4793)  ( 2.00    -0.4187)  ( 2.00    -0.4084)  ( 2.00    -0.3828)
                     ( 2.00    -0.3825)  ( 2.00    -0.3380)  ( 2.00    -0.3110)  ( 2.00    -0.3109)
                     ( 2.00    -0.2384)  ( 2.00    -0.2383)  ( 0.00    -0.0510)

 CYCLE    6
  SDIIS (wt  0.992): -0.0028  0.0316  0.0083  0.1933  0.7696
 A-DIIS (wt  0.008):  0.0000  0.0000  0.0000  0.0000  1.0000
  DIIS coefficients: -0.0028  0.0313  0.0083  0.1917  0.7715
 SCF Error: norm([F,P])=      0.010778244721, max([F,P])=      0.001787314408
 orbitals (Q,E):
 ---------------
 A :12...22          ( 2.00    -0.4790)  ( 2.00    -0.4180)  ( 2.00    -0.4073)  ( 2.00    -0.3826)
                     ( 2.00    -0.3824)  ( 2.00    -0.3374)  ( 2.00    -0.3104)  ( 2.00    -0.3103)
                     ( 2.00    -0.2377)  ( 2.00    -0.2376)  ( 0.00    -0.0502)

 CYCLE    7
  SDIIS (wt  1.000): -0.0004  0.0111  0.0026  0.0756  0.3252  0.5859
  DIIS coefficients: -0.0004  0.0111  0.0026  0.0756  0.3252  0.5859
 SCF Error: norm([F,P])=      0.002057124909, max([F,P])=      0.000536578124
 orbitals (Q,E):
 ---------------
 A :12...22          ( 2.00    -0.4791)  ( 2.00    -0.4181)  ( 2.00    -0.4075)  ( 2.00    -0.3827)
                     ( 2.00    -0.3824)  ( 2.00    -0.3375)  ( 2.00    -0.3105)  ( 2.00    -0.3104)
                     ( 2.00    -0.2378)  ( 2.00    -0.2378)  ( 0.00    -0.0503)

 CYCLE    8
  SDIIS (wt  1.000):  0.0007  0.0010  0.0001  0.0147  0.0806  0.4984  0.4045
  DIIS coefficients:  0.0007  0.0010  0.0001  0.0147  0.0806  0.4984  0.4045
 SCF Error: norm([F,P])=      0.002023412511, max([F,P])=      0.000497099797
 orbitals (Q,E):
 ---------------
 A :12...22          ( 2.00    -0.4791)  ( 2.00    -0.4181)  ( 2.00    -0.4075)  ( 2.00    -0.3827)
                     ( 2.00    -0.3825)  ( 2.00    -0.3376)  ( 2.00    -0.3105)  ( 2.00    -0.3105)
                     ( 2.00    -0.2379)  ( 2.00    -0.2378)  ( 0.00    -0.0504)

 CYCLE    9
  SDIIS (wt  1.000):  0.0002 -0.0001 -0.0000  0.0013  0.0087  0.0741  0.0759  0.8399
  DIIS coefficients:  0.0002 -0.0001 -0.0000  0.0013  0.0087  0.0741  0.0759  0.8399
 SCF Error: norm([F,P])=      0.000086249355, max([F,P])=      0.000022028385
 orbitals (Q,E):
 ---------------
 A :12...22          ( 2.00    -0.4791)  ( 2.00    -0.4181)  ( 2.00    -0.4075)  ( 2.00    -0.3827)
                     ( 2.00    -0.3825)  ( 2.00    -0.3376)  ( 2.00    -0.3105)  ( 2.00    -0.3105)
                     ( 2.00    -0.2379)  ( 2.00    -0.2378)  ( 0.00    -0.0504)

 CYCLE   10
  SDIIS (wt  1.000):  0.0001 -0.0001 -0.0000 -0.0003 -0.0006  0.0078  0.0172  0.5829  0.3932
  DIIS coefficients:  0.0001 -0.0001 -0.0000 -0.0003 -0.0006  0.0078  0.0172  0.5829  0.3932
 SCF Error: norm([F,P])=      0.000103186093, max([F,P])=      0.000026209789
 orbitals (Q,E):
 ---------------
 A :12...22          ( 2.00    -0.4791)  ( 2.00    -0.4181)  ( 2.00    -0.4075)  ( 2.00    -0.3827)
                     ( 2.00    -0.3825)  ( 2.00    -0.3376)  ( 2.00    -0.3105)  ( 2.00    -0.3105)
                     ( 2.00    -0.2379)  ( 2.00    -0.2378)  ( 0.00    -0.0504)

 CYCLE   11
  SDIIS (wt  1.000):  0.0000 -0.0000 -0.0000  0.0000 -0.0000 -0.0001 -0.0001 -0.0047  0.0023  1.0027
  DIIS coefficients:  0.0000 -0.0000 -0.0000  0.0000 -0.0000 -0.0001 -0.0001 -0.0047  0.0023  1.0027
 SCF Error: norm([F,P])=      0.000001312399, max([F,P])=      0.000000338778
 orbitals (Q,E):
 ---------------
 A :12...22          ( 2.00    -0.4791)  ( 2.00    -0.4181)  ( 2.00    -0.4075)  ( 2.00    -0.3827)
                     ( 2.00    -0.3825)  ( 2.00    -0.3376)  ( 2.00    -0.3105)  ( 2.00    -0.3105)
                     ( 2.00    -0.2379)  ( 2.00    -0.2378)  ( 0.00    -0.0504)

 SCF CONVERGED

 CYCLE   12
1
 ***************************************************************************************************



                                                *******************
                                                *  R E S U L T S  *
                                                *******************
  
 *** Using FIT density in Focky
  SDIIS (wt  1.000): -0.0000 -0.0000  0.0000 -0.0000 -0.0002 -0.0003 -0.0075 -0.0019  0.5854  0.4244
  DIIS coefficients: -0.0000 -0.0000  0.0000 -0.0000 -0.0002 -0.0003 -0.0075 -0.0019  0.5854  0.4244
 SCF Error: norm([F,P])=      0.000000361254, max([F,P])=      0.000000081833

 Orbital Energies, per Irrep and Spin:
 ======================================
                        Occup              E (au)              E (eV)       Diff (eV) with prev. cycle
                        -----      --------------------        ------       --------------------------
 A
              12        2.000     -0.47913347804971E+00       -13.038               6.59E-08
              13        2.000     -0.41810937560214E+00       -11.377               9.52E-08
              14        2.000     -0.40754931942947E+00       -11.090               7.02E-08
              15        2.000     -0.38269312578005E+00       -10.414               5.97E-08
              16        2.000     -0.38246894132722E+00       -10.408               6.56E-08
              17        2.000     -0.33758008206177E+00        -9.186               3.45E-08
              18        2.000     -0.31054033413557E+00        -8.450               8.00E-08
              19        2.000     -0.31046376453803E+00        -8.448               7.23E-08
              20        2.000     -0.23788101655524E+00        -6.473               3.82E-08
              21        2.000     -0.23782137873061E+00        -6.471               4.56E-08
              22        0.000     -0.50383778061137E-01        -1.371
              23        0.000     -0.50334963704820E-01        -1.370
              24        0.000      0.20341010698344E-02         0.055
              25        0.000      0.27837961738178E-01         0.758
              26        0.000      0.27862605114301E-01         0.758
              27        0.000      0.60712701710685E-01         1.652
              28        0.000      0.60761669361060E-01         1.653
              29        0.000      0.90659784667821E-01         2.467
              30        0.000      0.96119482515332E-01         2.616
              31        0.000      0.14212246267237E+00         3.867
  
 HOMO :       21 A                -0.23782137873061E+00
 LUMO :       22 A                -0.50383778061137E-01
  


 All Electron Calculation, thus no Orbital Energies of the Core Orbitals are calculated


 Fit test: (difference of exact and fit density, squared integrated, result summed over spins)
         Sum-of-Fragments:                             0.00000000048365
         Orthogonalized Fragments:                     0.00013299014648
         SCF:                                          0.00048706726949



 ==========================
 Electron Density at Nuclei
 ==========================
  
 The electron density is calculated at points on a small sphere around the center of a nucleus.
 The printed electron density is the average electron density on these points.
 The radius of the sphere is the printed approximate finite nuclear radius.

         Atom        Nuclear Radius (Angstrom)             Electron Density (a.u.)
         ----        -------------------------             -----------------------
     1)   C                 0.0000320678                              126.51508
     2)   C                 0.0000320678                              126.51600
     3)   C                 0.0000320678                              126.51426
     4)   C                 0.0000320678                              126.51376
     5)   C                 0.0000320678                              126.51541
     6)   C                 0.0000320678                              126.51499
     7)   H                 0.0000181514                                0.49877
     8)   H                 0.0000181514                                0.49865
     9)   H                 0.0000181514                                0.49856
    10)   H                 0.0000181514                                0.49871
    11)   H                 0.0000181514                                0.49868
    12)   H                 0.0000181514                                0.49873



 =======================================
 M U L L I K E N   P O P U L A T I O N S
 =======================================
  
 The survey below gives for each atom:
 a) the total charge (Z minus electrons)
 b) the net spin polarization (nr of electrons spin-A minus spin-B)
 c) for each spin the atomic electron valence density (integrated) per L-value.

 Atom              Charge    Spin density          S         P         D         F
 ----              ------    ------------       ------    ------    ------    ------
 1 C               0.1759                       3.0643    2.6988    0.0611    0.0000
 2 C               0.1759                       3.0647    2.6984    0.0610    0.0000
 3 C               0.1752                       3.0653    2.6985    0.0609    0.0000
 4 C               0.1749                       3.0656    2.6987    0.0609    0.0000
 5 C               0.1755                       3.0652    2.6984    0.0609    0.0000
 6 C               0.1758                       3.0646    2.6986    0.0610    0.0000
 7 H              -0.1760                       1.1045    0.0715    0.0000    0.0000
 8 H              -0.1756                       1.1042    0.0714    0.0000    0.0000
 9 H              -0.1749                       1.1036    0.0714    0.0000    0.0000
 10 H             -0.1759                       1.1044    0.0715    0.0000    0.0000
 11 H             -0.1757                       1.1043    0.0714    0.0000    0.0000
 12 H             -0.1751                       1.1038    0.0714    0.0000    0.0000

 Populations of individual BAS functions
 ----------------------------------------
 1 C            0.4870  1.5144  0.2291  0.8873 -0.0535 -0.1036  0.1472 -0.2377  0.8056  0.6781
                0.8823  0.2003  0.1367  0.1899  0.0268  0.0122  0.0174 -0.0175  0.0040  0.0181
 2 C            0.4870  1.5144  0.2294  0.8874 -0.0535 -0.2021  0.1471 -0.1400  0.8620  0.6782
                0.8266  0.1927  0.1366  0.1973  0.0181  0.0062  0.0221 -0.0176  0.0100  0.0222
 3 C            0.4869  1.5145  0.2302  0.8873 -0.0535 -0.2076  0.1475 -0.1340  0.8648  0.6780
                0.8233  0.1921  0.1366  0.1976  0.0180  0.0059  0.0216 -0.0175  0.0103  0.0227
 4 C            0.4869  1.5145  0.2305  0.8871 -0.0535 -0.1030  0.1478 -0.2378  0.8053  0.6779
                0.8823  0.1998  0.1366  0.1898  0.0267  0.0122  0.0174 -0.0175  0.0040  0.0181
 5 C            0.4870  1.5144  0.2300  0.8873 -0.0535 -0.2028  0.1474 -0.1391  0.8622  0.6781
                0.8263  0.1925  0.1366  0.1973  0.0181  0.0062  0.0220 -0.0175  0.0100  0.0221
 6 C            0.4870  1.5144  0.2294  0.8873 -0.0535 -0.2069  0.1472 -0.1349  0.8646  0.6781
                0.8236  0.1923  0.1366  0.1978  0.0179  0.0059  0.0216 -0.0175  0.0103  0.0227
 7 H            0.2098  0.5759  0.3188  0.0288  0.0217  0.0209
 8 H            0.2093  0.5761  0.3188  0.0295  0.0217  0.0202
 9 H            0.2085  0.5762  0.3189  0.0162  0.0217  0.0334
 10 H           0.2097  0.5759  0.3188  0.0289  0.0217  0.0208
 11 H           0.2093  0.5762  0.3188  0.0294  0.0217  0.0203
 12 H           0.2086  0.5762  0.3189  0.0162  0.0217  0.0334

 Gross Charges per Atom (Z minus electrons)
 ==========================================
             0.1759    0.1759    0.1752    0.1749    0.1755    0.1758   -0.1760   -0.1756   -0.1749   -0.1759
            -0.1757   -0.1751
 Net Total: -0.00000000


 Atom-Atom Population Matrix (off-diagonal elements not doubled)
 ===============================================================

     1 :     4.5222
     2 :     0.5420    4.5219
     3 :    -0.0107    0.5417    4.5228
     4 :    -0.0557   -0.0105    0.5416    4.5236
     5 :    -0.0106   -0.0555   -0.0106    0.5415    4.5226
     6 :     0.5421   -0.0107   -0.0555   -0.0106    0.5418    4.5220
     7 :    -0.0537    0.3939   -0.0534    0.0022    0.0041    0.0022    0.9823
     8 :     0.0021   -0.0536    0.3939   -0.0536    0.0021    0.0041   -0.0476    0.9816
     9 :     0.0041    0.0021   -0.0534    0.3939   -0.0534    0.0021   -0.0039   -0.0474    0.9805
    10 :     0.0021    0.0041    0.0021   -0.0535    0.3938   -0.0536    0.0015   -0.0038   -0.0474    0.9820
    11 :    -0.0538    0.0022    0.0041    0.0022   -0.0534    0.3939   -0.0038    0.0015   -0.0038   -0.0476
             0.9820
    12 :     0.3940   -0.0534    0.0022    0.0041    0.0022   -0.0534   -0.0478   -0.0038    0.0016   -0.0038
            -0.0478    0.9811



 =================================================
 H I R S H F E L D   C H A R G E   A N A L Y S I S
 =================================================
  
 For each fragment: the (numerical) integral of rho(scf) * rho(fragment)/rho(sum-of-fragments)
 (nuclear charges are included, electrons are counted negative)

 The fragments and their ordering are defined in the early G E O M E T R Y output section.
 If you use single-atom fragments, this usually implies that all atoms of the same
 chemical type are grouped together. This may not be the order in which you listed them
 in the input file!

    1  C                        -0.0464
    2  C                        -0.0464
    3  C                        -0.0463
    4  C                        -0.0462
    5  C                        -0.0463
    6  C                        -0.0464
    7  H                         0.0463
    8  H                         0.0463
    9  H                         0.0463
   10  H                         0.0463
   11  H                         0.0463
   12  H                         0.0462

 Sum of these charges (accuracy NumInt/Tails) =          -0.00005967



 =============================
 V O R O N O I   C H A R G E S
 =============================
  
 For each atom: the (numerical) integral of the total electronic charge density in its Voronoi cell,
 i.e. the region of space that is closer to that atom than to any other atom.
 (cf. Wigner-Seitz cells in crystals)

 Within the Voronoi cell the subintegrals over the atomic sphere and the remaining part are evaluated
 separately to give the numbers of electrons (negative charge) in these regions.
 The net total charge in the cell (including the nuclear charge) is also given.

 Values are provided for
    a) the Initial (sum-of-fragments) density
    b) the Orthogonalized-Fragments density
    c) the SCF density
    d) the Voronoi Deformation Density (VDD): the difference SCF-Initial for the complete atomic cell


  Atom                Initial                    OrthFrag                   SCF
             Sphere RestCell NetTotal   Sphere RestCell NetTotal   Sphere RestCell NetTotal      VDD
 -----       ------------------------   ------------------------   ------------------------    -----
    1 C      -2.269   -3.185    0.546   -2.452   -3.136    0.411   -2.303   -3.206    0.491   -0.055
    2 C      -2.269   -3.191    0.541   -2.452   -3.137    0.410   -2.303   -3.207    0.489   -0.051
    3 C      -2.269   -3.190    0.542   -2.452   -3.142    0.406   -2.303   -3.212    0.485   -0.057
    4 C      -2.268   -3.185    0.547   -2.452   -3.137    0.411   -2.303   -3.206    0.491   -0.056
    5 C      -2.269   -3.192    0.540   -2.452   -3.138    0.410   -2.303   -3.208    0.489   -0.051
    6 C      -2.269   -3.185    0.547   -2.452   -3.139    0.409   -2.303   -3.208    0.489   -0.058
    7 H      -0.075   -1.473   -0.547   -0.096   -1.317   -0.413   -0.109   -1.384   -0.493    0.055
    8 H      -0.075   -1.465   -0.540   -0.096   -1.310   -0.405   -0.109   -1.375   -0.484    0.056
    9 H      -0.075   -1.467   -0.542   -0.096   -1.313   -0.409   -0.109   -1.379   -0.488    0.053
   10 H      -0.075   -1.474   -0.549   -0.096   -1.318   -0.414   -0.109   -1.385   -0.494    0.056
   11 H      -0.075   -1.468   -0.543   -0.096   -1.312   -0.407   -0.109   -1.378   -0.487    0.056
   12 H      -0.075   -1.467   -0.542   -0.096   -1.313   -0.409   -0.109   -1.380   -0.489    0.053
 ---------------------------------------------------------------------------------------------------
 Total NetCharge:              -0.000                     -0.000                     -0.000    0.000
 (accuracy NumInt/Tails)

 Remark: the 'NetTotal' Voronoi charges often do not match the Mulliken and/or Hirshfeld charges very
 well. This is caused by the fact that chemically different atoms are not treated in accordance with
 their relative sizes. (Voronoi cells are defined by boundary planes halfway between the atoms.)
 However, the CHANGES in charge, comparing 'Initial' to 'SCF' for instance, do give a fair indication
 of the flow of charge caused by the relaxation from sum-of-fragments to self-consistency.

 Warning: the absolute accuracy of the VDD charges obtained using the Fuzzy Cells (Becke) integration
 scheme is much poorer than the one obtained with an 'equivalent' Voronoi integration grid. 



 =================================================================
 M U L T I P O L E   D E R I V E D   C H A R G E   A N A L Y S I S
 =================================================================

 This charge analysis uses the atomic multipoles (obtained from the fitted density) up to some level X,
 and reconstructs these multipoles exactly (up to level X) by distributing charges over all atoms.
 This is achieved by using Lagrange multipliers and a weight function to keep the multipoles local.

 Dummy atoms can be included (by setting INCDUM in MDC-block to 1) to obtain a fractional charge.
 This is generally useful and necessary only for small symmetrical molecules, when there are not
 enough degrees of freedom to reconstruct the multipoles.

 Since the atomic multipoles are reconstructed up to level X,
 the molecular multipoles are represented also up to level X.
 The recommended level is to reconstruct up to quadrupole : -> MDC-q charges.

 See: M. Swart, P.Th. van Duijnen, J.G. Snijders, J.Comput.Chem., (2001), p. 79-88.

 ------------------------------------------------------------- 
 Atomic electronic multipole moments from SCF equations (a.u.)
 ------------------------------------------------------------- 

   atom        charge        dip-x     dip-y     dip-z      quad-xx   quad-xy   quad-xz   quad-yy   quad-yz   quad-zz
 --------------------------------------------------------------------------------------------------------------------
    1 C      0.060892     0.001039 -0.000000 -0.047057     0.469679 -0.000000 -0.000758 -0.996294 -0.000000  0.526616
    2 C      0.060467    -0.041699  0.000000 -0.026173     0.507815 -0.000000  0.014878 -0.993679 -0.000000  0.485864
    3 C      0.060578    -0.042790  0.000000  0.022893     0.513271 -0.000000 -0.015072 -0.995076  0.000000  0.481805
    4 C      0.060839    -0.000947  0.000000  0.047201     0.468133 -0.000000 -0.000774 -0.996970  0.000000  0.528837
    5 C      0.060444     0.042437  0.000000  0.025047     0.509680 -0.000000  0.014917 -0.993985  0.000000  0.484305
    6 C      0.060600     0.042115  0.000000 -0.023914     0.511371 -0.000000 -0.014914 -0.994684 -0.000000  0.483313
    7 H     -0.060659    -0.019248  0.000000 -0.012114     0.159722  0.000000  0.080644 -0.195348 -0.000000  0.035627
    8 H     -0.060574    -0.020023  0.000000  0.010730     0.171182 -0.000000 -0.076488 -0.195698  0.000000  0.024515
    9 H     -0.060597    -0.000472  0.000000  0.022740    -0.038739  0.000000 -0.003850 -0.194925 -0.000000  0.233664
   10 H     -0.060591     0.019658  0.000000  0.011605     0.160878 -0.000000  0.080379 -0.195394 -0.000000  0.034516
   11 H     -0.060651     0.019654  0.000000 -0.011192     0.170130  0.000000 -0.076742 -0.195643  0.000000  0.025512
   12 H     -0.060747     0.000506  0.000000 -0.022516    -0.038391  0.000000 -0.003888 -0.194860  0.000000  0.233251

 --------------------------------------- 
 Multipole derived atomic charges (a.u.)
 --------------------------------------- 

 The MDC-m charges are just the Monopole terms in the multipole expansion, while for the MDC-d charges
 also the Dipoles are reconstructed. The usually preferred charges are the MDC-q charges.
 These reconstruct the Monopoles, Dipoles and Quadrupoles (both atomic AND molecular).

        Atom    Level:     MDC-m        MDC-d        MDC-q
 ---------------------------------------------------------
     1     C            0.060892     0.035231    -0.125995
     2     C            0.060467     0.034630    -0.128026
     3     C            0.060578     0.034479    -0.127874
     4     C            0.060839     0.034620    -0.125971
     5     C            0.060444     0.034367    -0.128082
     6     C            0.060600     0.034812    -0.127790
     7     H           -0.060659    -0.034384     0.127672
     8     H           -0.060574    -0.034599     0.127506
     9     H           -0.060597    -0.035016     0.126743
    10     H           -0.060591    -0.034336     0.127747
    11     H           -0.060651    -0.034662     0.127398
    12     H           -0.060747    -0.035142     0.126670

 ------------------------------------------------ 
 Average absolute deviations in atomic multipoles
 ------------------------------------------------ 

 Stated here are the average differences between the atomic multipoles
 and the reconstructed atomic multipoles (from the distributed charges).
 If these values are not zero, this means there are not enough degrees of freedom,
 to be able to reconstruct the atomic multipoles. (This usually happens only
 for small and/or highly symmetric molecules). If this is the case, one could add
 dummy atoms as extra point charges (and setting INCDUM in MDC-block to 1).

 Level:                                 MDC-d        MDC-q
 ---------------------------------------------------------
 Charge   (a.u.)                       0.0000       0.0000
 Dipole   (Debye)                      0.0000       0.0000
 Quad.    (a.u.)                       0.2134       0.0000

 --------------------------------------- 
 Represented molecular multipole moments
 --------------------------------------- 

 Given here are the Molecular multipole moments from the atomic charges, and from the Fit Density.
 Note that the atomic charges represent the latter, NOT the ones from the Exact density.

            Q (a.u.)             Dipole moment (Debye)                                          Quadrupole moment (a.u.)
                                 x         y         z              xx        xy        xz        yy        yz        zz
------------------------------------------------------------------------------------------------------------------------
MDC-m         0.0000       -0.0004    0.0000    0.0043         -1.3797   -0.0016   -0.0014    2.7587    0.0190   -1.3790
MDC-d         0.0000        0.0002    0.0000   -0.0027         -0.7729    0.0010    0.0073    1.5782   -0.0122   -0.8053
MDC-q         0.0000        0.0002    0.0000   -0.0027          2.9009    0.0010    0.0052   -5.7910   -0.0122    2.8902
 
Fit.Dens.     0.0000        0.0002    0.0000   -0.0027          2.9009    0.0010    0.0044   -5.7910   -0.0122    2.8902



 =============
 Dipole Moment  ***  (Debye)  ***
 =============
  
 Vector   :         0.00021395     -0.00000003     -0.00272038
 Magnitude:         0.00272878

 This molecular dipole moment is calculated with analytic integration



 =========================================
 Quadrupole Moment (Buckingham convention)  ***  (a.u.)  ***
 =========================================
  
      quad-xx        quad-xy        quad-xz        quad-yy        quad-yz        quad-zz
      2.91226561     0.00095457     0.00258826    -5.81937187    -0.01213526     2.90710626

 This molecular quadrupole moment is calculated with analytic integration
1



 =======================================================
 S F O   P O P U L A T I O N S ,   M O   A N A L Y S I S
 =======================================================
  
 A Mulliken population analysis is performed on (input-)selected MOs. All populations refer to SFOs.
 BAS populations may have been printed directly after the SCF part.


                                       === A ===


 SFO contributions (%) per orbital
 (multiplication by the orbital occupation yields the SFO Gross Populations)

 Orb.:       12     13     14     15     16     17     18     19     20     21     22     23     24     25
 occup:     2.00   2.00   2.00   2.00   2.00   2.00   2.00   2.00   2.00   2.00   0.00   0.00   0.00   0.00
 CF+SFO     ----   ----   ----   ----   ----   ----   ----   ----   ----   ----   ----   ----   ----   ----
 ------
      2:    0.24   4.06   0.00   0.00   0.03  -0.00  -0.00  -0.06  -0.00  -0.00  -0.00   0.00  -0.25   0.01
      3:   -0.08   0.11   0.00  -0.00  -0.18   0.00  -0.00  -0.02   0.00   0.00  -0.00  -0.00  -2.69  -0.10
      6:    0.01   0.00  14.37   0.43  -0.00  -0.00   9.01   0.17   0.00  -0.00   0.00  -0.00   0.00  -1.77
      7:    0.00   0.00   2.00   0.66   0.00   0.00   3.01   0.06  -0.00  -0.00  -0.00  -0.00  -0.00  -8.22
      9:    0.00  -0.00  -0.00   0.00   0.00  17.29  -0.00  -0.00   0.28  31.41   0.47  33.95  -0.00   0.00
     10:   -0.00   0.00  -0.00   0.00   0.00  -0.98  -0.00   0.00   0.00   0.12  -0.05  -3.80   0.00   0.00
     12:   10.73   2.58   0.01   0.31  17.44  -0.00   0.13   5.76  -0.00   0.00   0.00   0.00   0.73   0.14
     13:    0.23   0.28   0.00   0.01   1.24   0.00   0.04   1.43  -0.00   0.00  -0.00  -0.00  -0.52  -1.64
     17:    0.00   0.00   0.00   0.00  -0.00   0.00   0.00   0.00   0.61   0.00   1.12   0.02  -0.00   0.00
     21:    0.24   4.03   0.00   0.03   0.01   0.00  -0.05  -0.01  -0.00   0.00  -0.00  -0.00  -0.24   0.01
     22:   -0.08   0.11   0.00  -0.16  -0.03   0.00  -0.02  -0.00   0.00  -0.00   0.00   0.00  -2.69  -0.21
     25:    7.82   1.95   3.89  10.10   2.93   0.00   6.51   0.27   0.00   0.00  -0.00   0.00   0.53  -0.74
     26:    0.17   0.21   0.53   0.24   0.86  -0.00   1.99  -0.10   0.00  -0.00  -0.00  -0.00  -0.37  -9.03
     28:    0.00   0.00   0.00  -0.00   0.00  17.25   0.00   0.00  26.24   5.49  22.20  12.26   0.00  -0.00
     29:    0.00   0.00   0.00  -0.00  -0.00  -0.98   0.00  -0.00   0.10   0.02  -2.48  -1.37  -0.00  -0.00
     31:    2.89   0.70  10.55   5.14  -0.07  -0.00  -0.12   8.38  -0.00   0.00   0.00  -0.00   0.19  -0.36
     32:    0.06   0.07   1.47   0.93  -0.11   0.00  -0.28   2.91   0.00   0.00  -0.00   0.00  -0.14  -1.07
     40:    0.24   4.02   0.00   0.02   0.02   0.00  -0.04  -0.02   0.00   0.00   0.00   0.00  -0.24   0.04
     41:   -0.08   0.11  -0.00  -0.12  -0.07   0.00  -0.01  -0.01   0.00   0.00   0.00  -0.00  -2.69  -0.61
     44:    8.20   2.01   3.34   7.26   6.51   0.00   6.76  -0.16  -0.00  -0.00  -0.00   0.00   0.55   0.44
     45:    0.18   0.22   0.46  -0.09   1.22  -0.00   2.18  -0.35  -0.00   0.00  -0.00   0.00  -0.39  -9.39
     47:   -0.00  -0.00  -0.00   0.00  -0.00  17.18  -0.00   0.00  21.12  10.68  29.11   5.44   0.00   0.00
     48:   -0.00   0.00  -0.00   0.00   0.00  -0.98  -0.00   0.00   0.08   0.04  -3.25  -0.61  -0.00  -0.00
     50:    2.48   0.61  11.17   4.00   0.41   0.00   0.26   8.15  -0.00   0.00  -0.00   0.00   0.17   0.28
     51:    0.06   0.06   1.53   1.13  -0.33   0.00  -0.15   2.82   0.00  -0.00  -0.00   0.00  -0.11  -1.68
     59:    0.24   4.03   0.00   0.00   0.03  -0.00  -0.00  -0.06   0.00  -0.00   0.00   0.00  -0.24   0.01
     60:   -0.08   0.11   0.00  -0.00  -0.18   0.00  -0.00  -0.02   0.00  -0.00  -0.00   0.00  -2.68  -0.10
     63:    0.01   0.00  14.51   0.43  -0.00   0.00   9.00   0.17   0.00   0.00   0.00   0.00   0.00  -1.73
     64:    0.00   0.00   1.99   0.67   0.00   0.00   2.98   0.06  -0.00   0.00   0.00   0.00  -0.00  -8.08
     66:   -0.00   0.00  -0.00  -0.00   0.00  17.15   0.00  -0.00   0.28  31.56   0.47  34.11   0.00   0.00
     67:    0.00   0.00   0.00  -0.00  -0.00  -0.98   0.00   0.00   0.00   0.11  -0.05  -3.81   0.00   0.00
     69:   10.67   2.58   0.01   0.31  17.53  -0.00   0.13   5.72  -0.00  -0.00  -0.00  -0.00   0.72   0.14
     70:    0.23   0.28   0.00   0.01   1.25  -0.00   0.04   1.43  -0.00  -0.00  -0.00  -0.00  -0.51  -1.65
     74:   -0.00   0.00   0.00  -0.00  -0.00   0.00  -0.00   0.00   0.60   0.00   1.12   0.02  -0.00  -0.00
     78:    0.24   4.02   0.00   0.03   0.01   0.00  -0.05  -0.01   0.00   0.00   0.00  -0.00  -0.24   0.01
     79:   -0.08   0.11  -0.00  -0.16  -0.03   0.00  -0.02  -0.00   0.00   0.00   0.00  -0.00  -2.68  -0.21
     82:    7.81   1.93   3.87  10.16   2.95  -0.00   6.46   0.26   0.00   0.00  -0.00   0.00   0.53  -0.74
     83:    0.17   0.21   0.54   0.24   0.86   0.00   1.99  -0.10  -0.00  -0.00  -0.00   0.00  -0.37  -8.97
     85:    0.00  -0.00  -0.00   0.00   0.00  17.19  -0.00   0.00  26.25   5.55  22.17  12.37   0.00  -0.00
     86:   -0.00  -0.00  -0.00   0.00  -0.00  -0.98  -0.00   0.00   0.10   0.02  -2.47  -1.38   0.00  -0.00
     88:    2.87   0.72  10.64   5.11  -0.07  -0.00  -0.12   8.41   0.00   0.00  -0.00   0.00   0.19  -0.34
     89:    0.06   0.08   1.46   0.93  -0.11  -0.00  -0.28   2.90   0.00  -0.00  -0.00  -0.00  -0.13  -1.05
     97:    0.24   4.04   0.00   0.02   0.01   0.00  -0.04  -0.02   0.00   0.00  -0.00   0.00  -0.24   0.04
     98:   -0.08   0.11   0.00  -0.11  -0.07   0.00  -0.01  -0.01  -0.00   0.00  -0.00   0.00  -2.70  -0.60
    101:    8.21   2.03   3.35   7.21   6.47  -0.00   6.82  -0.16   0.00   0.00  -0.00   0.00   0.56   0.44
    102:    0.18   0.22   0.46  -0.10   1.22   0.00   2.19  -0.35  -0.00   0.00  -0.00  -0.00  -0.39  -9.42
    104:   -0.00   0.00   0.00  -0.00   0.00  17.26   0.00  -0.00  21.12  10.60  29.08   5.37  -0.00   0.00
    105:    0.00   0.00   0.00  -0.00   0.00  -0.98   0.00  -0.00   0.08   0.04  -3.25  -0.60   0.00  -0.00
    107:    2.50   0.60  11.08   4.02   0.41   0.00   0.26   8.13  -0.00  -0.00  -0.00  -0.00   0.17   0.27
    108:    0.05   0.06   1.54   1.13  -0.33  -0.00  -0.15   2.84   0.00  -0.00  -0.00  -0.00  -0.12  -1.64
    115:    5.55   9.21   0.00  11.07   1.83   0.00  11.31   2.06  -0.00   0.00   0.00   0.00   7.82   7.64
    116:   -0.02   0.16  -0.00   0.13   0.02   0.00  -0.17  -0.03  -0.00   0.00   0.00   0.00  11.30  11.38
    121:    5.53   9.16   0.00   8.14   4.84   0.00   8.53   4.80   0.00   0.00   0.00  -0.00   7.79  21.76
    122:   -0.02   0.16   0.00   0.10   0.06  -0.00  -0.13  -0.07   0.00  -0.00   0.00  -0.00  11.25  32.35
    125:    0.00   0.00   0.00  -0.00   0.00   0.25   0.00  -0.00   0.55   0.28   1.16   0.22  -0.00  -0.00
    127:    5.51   9.08   0.00   0.24  12.81   0.00   0.19  13.13   0.00   0.00   0.00   0.00   7.77   3.60
    128:   -0.02   0.16   0.00   0.00   0.16   0.00  -0.00  -0.19   0.00   0.00   0.00  -0.00  11.21   5.36
    131:    0.00  -0.00   0.00   0.00  -0.00   0.25  -0.00   0.00   0.01   0.83   0.02   1.36   0.00  -0.00
    133:    5.54   9.19   0.00  11.11   1.83   0.00  11.27   2.06   0.00   0.00   0.00  -0.00   7.78   7.65
    134:   -0.02   0.16   0.00   0.13   0.02  -0.00  -0.17  -0.03   0.00   0.00   0.00  -0.00  11.24  11.35
    139:    5.55   9.18   0.00   8.09   4.84   0.00   8.57   4.81   0.00  -0.00   0.00   0.00   7.84  21.71
    140:   -0.02   0.16  -0.00   0.10   0.06   0.00  -0.12  -0.07   0.00   0.00   0.00   0.00  11.32  32.25
    143:   -0.00  -0.00  -0.00   0.00   0.00   0.26  -0.00   0.00   0.55   0.28   1.16   0.21   0.00   0.00
    145:    5.54   9.11   0.00   0.24  12.73  -0.00   0.19  13.22   0.00  -0.00   0.00   0.00   7.85   3.58
    146:   -0.02   0.16  -0.00   0.00   0.16  -0.00  -0.00  -0.19   0.00   0.00   0.00   0.00  11.34   5.31
    149:    0.00   0.00   0.00  -0.00   0.00   0.26   0.00   0.00   0.01   0.82   0.02   1.35  -0.00   0.00


 Summation over all MOs, multiplied by occupation: Total SFO Gross Populations in this Irrep
 ===========================================================================================

     2.00    1.07   -0.01   -0.00   -0.00    0.84    0.07   -0.01    0.98   -0.02   -0.00    0.81
     0.03   -0.01    0.02    0.01    0.01    0.02    0.00    2.00    1.07   -0.01   -0.00   -0.00
     0.82    0.04   -0.01    0.98   -0.02   -0.00    0.83    0.06   -0.01    0.02    0.01    0.01
     0.02    0.01    2.00    1.07   -0.01   -0.00   -0.00    0.82    0.04   -0.01    0.98   -0.02
    -0.00    0.84    0.06   -0.01    0.02    0.01    0.01    0.02    0.01    2.00    1.07   -0.01
    -0.00   -0.00    0.84    0.07   -0.01    0.98   -0.02   -0.00    0.81    0.03   -0.01    0.02
     0.01    0.01    0.02    0.00    2.00    1.07   -0.01   -0.00   -0.00    0.82    0.04   -0.01
     0.98   -0.02   -0.00    0.83    0.06   -0.01    0.02    0.01    0.01    0.02    0.01    2.00
     1.07   -0.01   -0.00   -0.00    0.82    0.04   -0.01    0.98   -0.02   -0.00    0.83    0.06
    -0.01    0.02    0.01    0.01    0.02    0.01    1.11   -0.00   -0.00    0.03    0.02    0.02
     1.11   -0.00   -0.00    0.03    0.02    0.02    1.11   -0.00   -0.00    0.02    0.02    0.03
     1.11   -0.00   -0.00    0.03    0.02    0.02    1.11   -0.00   -0.00    0.03    0.02    0.02
     1.11   -0.00   -0.00    0.02    0.02    0.03



 List of all MOs, ordered by energy, with the most significant SFO gross populations
 ===================================================================================

 Each percentage contribution in the table below corresponds to the indicated SFO.
 In general, a SFO may be a linear combination of several Fragment Orbitals on the same,
 or on symmetry-related Fragments. Only the first 'member' of such a combination is
 specified here. A full definition of all SFOs is given in an earlier part of the output.
 The numbering of the SFOs in this table does NOT include the Core Orbitals, and starts
 from one for each symmetry representation, as in the SFO definition list earlier.

       E(eV)  Occ       MO           %     SFO (first member)   E(eV)  Occ   Fragment
 -------------------------------------------------------------------------------------

     -21.394  2.00     7 A         14.66%     2 S             -13.876  2.00     1 C
                                   14.63%     2 S             -13.876  2.00     6 C
                                   14.63%     2 S             -13.876  2.00     2 C
                                   14.57%     2 S             -13.876  2.00     5 C
                                   14.55%     2 S             -13.876  2.00     3 C
                                   14.53%     2 S             -13.876  2.00     4 C
                                    2.38%     1 P:z            -5.403  0.67     1 C
                                    2.37%     1 P:z            -5.403  0.67     4 C
                                    1.83%     1 P:x            -5.403  0.67     6 C
                                    1.82%     1 P:x            -5.403  0.67     3 C
                                    1.75%     1 P:x            -5.403  0.67     2 C
                                    1.73%     1 P:x            -5.403  0.67     5 C
                                    1.24%     1 S              -6.626  1.00    12 H
                                    1.24%     1 S              -6.626  1.00     7 H
                                    1.24%     1 S              -6.626  1.00    11 H
                                    1.23%     1 S              -6.626  1.00    10 H
                                    1.23%     1 S              -6.626  1.00     8 H
                                    1.23%     1 S              -6.626  1.00     9 H
     -18.622  2.00     8 A         20.77%     2 S             -13.876  2.00     2 C
                                   20.77%     2 S             -13.876  2.00     5 C
                                   12.91%     2 S             -13.876  2.00     6 C
                                   12.87%     2 S             -13.876  2.00     3 C
                                    5.53%     1 P:x            -5.403  0.67     1 C
                                    5.49%     1 P:x            -5.403  0.67     4 C
                                    5.12%     1 S              -6.626  1.00     7 H
                                    5.12%     1 S              -6.626  1.00    10 H
                                    3.17%     1 S              -6.626  1.00    11 H
                                    3.17%     1 S              -6.626  1.00     8 H
                                    2.37%     1 P:z            -5.403  0.67     3 C
                                    2.36%     1 P:z            -5.403  0.67     6 C
                                   -1.63%     2 P:x             4.709  0.00     1 C
                                   -1.62%     2 P:x             4.709  0.00     4 C
     -18.619  2.00     9 A         22.18%     2 S             -13.876  2.00     4 C
                                   22.06%     2 S             -13.876  2.00     1 C
                                   10.22%     2 S             -13.876  2.00     3 C
                                   10.12%     2 S             -13.876  2.00     6 C
                                    5.45%     1 S              -6.626  1.00     9 H
                                    5.44%     1 S              -6.626  1.00    12 H
                                    3.50%     1 P:z            -5.403  0.67     2 C
                                    3.48%     1 P:z            -5.403  0.67     5 C
                                    2.51%     1 S              -6.626  1.00     8 H
                                    2.50%     1 S              -6.626  1.00    11 H
                                    2.32%     2 S             -13.876  2.00     5 C
                                    2.27%     2 S             -13.876  2.00     2 C
                                    2.01%     1 P:z            -5.403  0.67     6 C
                                    1.99%     1 P:z            -5.403  0.67     3 C
                                    1.66%     1 P:x            -5.403  0.67     2 C
                                    1.66%     1 P:x            -5.403  0.67     5 C
[...]
       10        delta  0.1221069776657E+00
 CRIT  1.062193238895488E-002
 iter. 11 V(1) measure  0.8938704831396E+05
       11        delta  0.3250259615015E-03
 *** convergence reached

    RRIJmat_z_z         
    using first order VWN potential
 
    NOTE: We will NOT use the GGA kernel (input option ALDA was set)
 
 CRIT   1.00000000000000     
 iter.  1 V(1) measure  0.1302508043772E+04
 *** convergence criterion : .1302508E-02
 CRIT   160.401693100265     
 iter.  2 V(1) measure  0.1073538262386E+04
        2        delta  0.2289697813860E+03
 CRIT   60.9267857166437     
 iter.  3 V(1) measure  0.1108934914726E+04
        3        delta  0.3539665233984E+02
 CRIT   13.5760958327149     
 iter.  4 V(1) measure  0.1113426883754E+04
        4        delta  0.4491969028348E+01
 CRIT   5.87540270372127     
 iter.  5 V(1) measure  0.1115197027955E+04
        5        delta  0.1770144201203E+01
 CRIT   2.37437513395683     
 iter.  6 V(1) measure  0.1115649787199E+04
        6        delta  0.4527592439745E+00
 CRIT  0.889397585390734     
 iter.  7 V(1) measure  0.1115740646535E+04
        7        delta  0.9085933594520E-01
 CRIT  0.539043506019118     
 iter.  8 V(1) measure  0.1115746750283E+04
        8        delta  0.6103747428597E-02
 CRIT  0.105000365414663     
 iter.  9 V(1) measure  0.1115742140290E+04
        9        delta  0.4609992179894E-02
 CRIT  5.885650023740920E-002
 iter. 10 V(1) measure  0.1115740124669E+04
       10        delta  0.2015621766304E-02
 CRIT  1.787823127292930E-002
 iter. 11 V(1) measure  0.1115739814185E+04
       11        delta  0.3104837330739E-03
 *** convergence reached
 ------------------------------------------
 Convergence acceleration: T
 QUADRUPOLE-QUADRUPOLE POLARIZABILITY     
 Frequency  =  0.1322975682     Hartrees
 Wavelength =   344.4005294     nm
 Wavenumber =   29035.96001     cm^{-1}
 Energy     =   3.600000000     eV
 ------------------------------------------
 QUADRUPOLE-QUADRUPOLE Polarizability tensor:
 
 xx xx     4188.86101681832     
 xx xy    9.601564112809893E-002
 xx xz   -0.193896000998705     
 xx yy    -4991.65635817478     
 xx yz    -1.82366990414891     
 xx zz     802.795341356452     
 xy xx    9.629462928875780E-002
 xy xy     12591.5343187492     
 xy xz    0.946925855303368     
 xy yy   -0.181499489285942     
 xy yz   -0.696563663409857     
 xy zz    8.520486001290148E-002
 xz xx   -0.194287102878465     
 xz xy    0.944359825259086     
 xz xz     1693.65999855457     
 xz yy    0.149353702771050     
 xz yz   -9.075856755512672E-002
 xz zz    4.493340011685226E-002
 yy xx    -4991.75203026653     
 yy xy   -0.165502552993120     
 yy xz    0.138206203689237     
 yy yy     9983.75206648576     
 yy yz     1.33954125702913     
 yy zz    -4992.00003621924     
 yz xx    -1.82332879668345     
 yz xy   -0.727967140374705     
 yz xz   -9.122991191474893E-002
 yz yy     1.47559404898234     
 yz yz     12590.9025168431     
 yz zz    0.347734747694535     
 zz xx     802.805612010506     
 zz xy    8.603795910002285E-002
 zz xz    5.115854446501951E-002
 zz yy    -4991.97170307174     
 zz yz    0.345703469806772     
 zz zz     4189.16609106123     
 
 Imaginary QUADRUPOLE-QUADRUPOLE Polarizability tensor:
 
 xx xx     18.7067201889363     
 xx xy   -6.750092751693103E-004
 xx xz   -1.862689239836707E-003
 xx yy    -21.5571129420774     
 xx yz   -3.735631338961093E-002
 xx zz     2.85039275314105     
 xy xx   -4.467779001658505E-004
 xy xy     124.979126627652     
 xy xz    2.514506011977271E-002
 xy yy   -2.623020009318674E-003
 xy yz   -7.995126430426830E-003
 xy zz    3.069797909219098E-003
 xz xx   -1.697419343363457E-003
 xz xy    2.512723678343858E-002
 xz xz     7.93245524338340     
 xz yy    1.221110506777360E-003
 xz yz   -1.741329701422258E-003
 xz zz    4.763088366312855E-004
 yy xx    -21.5198639172663     
 yy xy   -6.410744106872489E-002
 yy xz    9.320982006067338E-004
 yy yy     43.0401913161024     
 yy yz    0.502629202787395     
 yy zz    -21.5203273988368     
 yz xx   -3.733524088592207E-002
 yz xy   -7.434698666690564E-003
 yz xz   -2.468052623639942E-003
 yz yy    2.071518384471919E-002
 yz yz     124.949099401754     
 yz zz    1.662005704141759E-002
 zz xx     2.85015392114624     
 zz xy    3.395404061617056E-003
 zz xz    5.719431655895198E-004
 zz yy    -21.5603807139395     
 zz yz    1.670165950853185E-002
 zz zz     18.7102267927932     



 =======================================================================
 Electrostatic potential at the Nuclei due to electrons and other nuclei
 =======================================================================
  
         Atom                  Potential
         ----                  ---------
     1)   C                  14.76918008
     2)   C                  14.76891933
     3)   C                  14.76858930
     4)   C                  14.76861313
     5)   C                  14.76866907
     6)   C                  14.76890241
     7)   H                   1.10113433
     8)   H                   1.10113366
     9)   H                   1.10147679
    10)   H                   1.10105533
    11)   H                   1.10122236
    12)   H                   1.10167695
 
 
 ========================
 No memory problems found
 ========================
 
 Maximum number of active allocate calls:        1279
 
 *******************************************************************************

                             A D F   E X I T
 NORMAL TERMINATION



 =================
 Timing Statistics
 =================
  
 Total Used :                     CPU=       37.86      System=        0.68     Elapsed=       39.26

 Calls  Section                     ( Mean, Percentage )
 ---------------------------------------------------------------------------------------------------
     3  ><      ................      0.00    0.01             0.00    0.00             0.00    0.01
     1  INIT    ................      0.42    1.10             0.01    0.96             0.43    1.08
     1  GEOMET  ................      0.03    0.07             0.00    0.60             0.03    0.08
     1  FRAGM   ................      0.01    0.04             0.01    1.59             0.02    0.06
     1  INPUTA  ................      0.00    0.00             0.00    0.17             0.00    0.00
     1  ATDEN   ................      0.00    0.01             0.00    0.00             0.00    0.01
     1  MAINSY  ................      0.02    0.04             0.01    1.16             0.02    0.06
     1  SYMFIT  ................      0.00    0.01             0.00    0.01             0.00    0.01
     1  CORORT  ................      0.00    0.00             0.00    0.01             0.00    0.00
     1  SYMORB  ................      0.00    0.01             0.00    0.00             0.00    0.01
     1  CLSMAT  ................      0.01    0.02             0.00    0.00             0.01    0.02
     1  ORTHON  ................      0.01    0.02             0.00    0.59             0.01    0.03
     1  GENPT   ................      0.08    0.21             0.00    0.01             0.08    0.21
     1  PTBAS   ................      0.06    0.15             0.00    0.06             0.06    0.15
    12  FOCKY   ................      0.17    5.44             0.00    1.81             0.17    5.28
    12  FOCKTR  ................      0.00    0.06             0.00    0.18             0.00    0.06
    12  SDIIS   ................      0.00    0.10             0.00    0.40             0.00    0.10
     1  COREPS  ................      0.14    0.36             0.00    0.00             0.14    0.35
     1  TOTEN   ................      0.61    1.60             0.02    2.78             0.63    1.59
     1  POPAN   ................      0.00    0.00             0.00    0.58             0.00    0.01
     1  DEBYE   ................      0.01    0.02             0.00    0.18             0.01    0.02
     1  INPUTE  ................      0.00    0.00             0.00    0.00             0.00    0.00
     1  SYMORE  ................      0.00    0.00             0.00    0.00             0.00    0.00
     1  METS    ................      0.00    0.00             0.00    0.00             0.00    0.00
     1  CETS    ................      0.01    0.02             0.00    0.00             0.01    0.02
     1  ELNRGY  ................      0.01    0.02             0.00    0.00             0.01    0.02
     1  POPUL   ................      0.01    0.03             0.00    0.00             0.01    0.03
     1  AORESPONSE .............     34.30   90.58             0.60   88.30            35.61   90.71
     1  EXIT PROCEDURE .........      0.03    0.07             0.00    0.59             0.03    0.08


 Currently Open Files (EXIT00)
 ====================

 Unit    Access Format  Status   Type       Ident (file)
 -------------------------------------------------------
   3      SEQ    FORM   TRANSP  NORMAL      LOGFILE
                                          ( logfile )

 ***************************************************************************************************
 (LOGFILE)
 <Sep29-2020> <15:12:25>  ADF 2019  RunTime: Sep29-2020 15:12:25  Nodes: 1  Procs: 1
 <Sep29-2020> <15:12:25>  Hydrogen (TZP)
 <Sep29-2020> <15:12:25>  RunType   : CREATE
 <Sep29-2020> <15:12:25>  Net Charge: 0 (Nuclei minus Electrons)
 <Sep29-2020> <15:12:25>  Symmetry  : ATOM
  Coordinates
    Atom         X           Y           Z   (Angstrom)
    1.H         0.000000    0.000000    0.000000
 <Sep29-2020> <15:12:25>  >>>> CORORT
 <Sep29-2020> <15:12:25>  >>>> CLSMAT
 <Sep29-2020> <15:12:25>  >>>> ORTHON
 <Sep29-2020> <15:12:25>  >>>> GENPT
 <Sep29-2020> <15:12:25>  Block Length=  64
 <Sep29-2020> <15:12:25>  >>>> PTBAS
 <Sep29-2020> <15:12:25>  >>>> CYCLE
 <Sep29-2020> <15:12:25>              |Error|         MaxErr       Wt(A-DIIS)
 <Sep29-2020> <15:12:25>      1      0.00000000      0.00000000
 <Sep29-2020> <15:12:25>      2      0.03052909      0.02968459
 <Sep29-2020> <15:12:25>      3      0.00718138      0.00670742    100.0
 <Sep29-2020> <15:12:25>      4      0.00117303      0.00114116      0.1
 <Sep29-2020> <15:12:25>      5      0.00002783      0.00002380      0.0
 <Sep29-2020> <15:12:25>      6      0.00000153      0.00000130      0.0
 <Sep29-2020> <15:12:25>      7      0.00000000      0.00000000      0.0
 <Sep29-2020> <15:12:25>  SCF converged
 <Sep29-2020> <15:12:25>      8      0.00000000      0.00000000      0.0
 <Sep29-2020> <15:12:25>  >>>> POPAN
 <Sep29-2020> <15:12:25>  >>>> DEBYE
 <Sep29-2020> <15:12:25>  NORMAL TERMINATION
 <Sep29-2020> <15:12:25>  END
 <Sep29-2020> <15:12:25>  ADF 2019  RunTime: Sep29-2020 15:12:25  Nodes: 1  Procs: 1
 <Sep29-2020> <15:12:25>  Carbon (TZP)
 <Sep29-2020> <15:12:25>  RunType   : CREATE
 <Sep29-2020> <15:12:25>  Net Charge: 0 (Nuclei minus Electrons)
 <Sep29-2020> <15:12:25>  Symmetry  : ATOM
  Coordinates
    Atom         X           Y           Z   (Angstrom)
    1.C         0.000000    0.000000    0.000000
 <Sep29-2020> <15:12:25>  >>>> CORORT
 <Sep29-2020> <15:12:25>  >>>> CLSMAT
 <Sep29-2020> <15:12:25>  >>>> ORTHON
 <Sep29-2020> <15:12:25>  >>>> GENPT
 <Sep29-2020> <15:12:25>  Block Length=  72
 <Sep29-2020> <15:12:25>  >>>> PTBAS
 <Sep29-2020> <15:12:25>  >>>> CYCLE
 <Sep29-2020> <15:12:25>              |Error|         MaxErr       Wt(A-DIIS)
 <Sep29-2020> <15:12:25>      1      0.00000000      0.00000000
 <Sep29-2020> <15:12:25>      2      4.48324754      3.31969244    100.0
 <Sep29-2020> <15:12:25>      3      1.61537707      1.30410194    100.0
 <Sep29-2020> <15:12:25>      4      0.72706284      0.59053131    100.0
 <Sep29-2020> <15:12:26>      5      0.40898688      0.33263800    100.0
 <Sep29-2020> <15:12:26>      6      0.13548919      0.10594416    100.0
 <Sep29-2020> <15:12:26>      7      0.11406432      0.09088019     90.8
 <Sep29-2020> <15:12:26>      8      0.01170325      0.00926551      8.3
 <Sep29-2020> <15:12:26>      9      0.00078015      0.00061791      0.0
 <Sep29-2020> <15:12:26>     10      0.00000178      0.00000107      0.0
 <Sep29-2020> <15:12:26>     11      0.00000024      0.00000019      0.0
 <Sep29-2020> <15:12:26>     12      0.00000000      0.00000000      0.0
 <Sep29-2020> <15:12:26>  SCF converged
 <Sep29-2020> <15:12:26>     13      0.00000000      0.00000000      0.0
 <Sep29-2020> <15:12:26>  >>>> POPAN
 <Sep29-2020> <15:12:26>  >>>> DEBYE
 <Sep29-2020> <15:12:26>  NORMAL TERMINATION
 <Sep29-2020> <15:12:26>  END
 <Sep29-2020> <15:12:26>  ADF 2019  RunTime: Sep29-2020 15:12:26  Nodes: 1  Procs: 6
 <Sep29-2020> <15:12:26>  None
 <Sep29-2020> <15:12:26>  RunType   : SINGLE POINT
 <Sep29-2020> <15:12:26>  Net Charge: 0 (Nuclei minus Electrons)
 <Sep29-2020> <15:12:26>  Symmetry  : NOSYM
 <Sep29-2020> <15:12:26>  >>>> FRAGM
  Coordinates
    Atom         X           Y           Z   (Angstrom)
    1.C         0.029721    4.000000   -1.397981
    2.C        -1.196566    4.000000   -0.725496
    3.C        -1.227181    4.000000    0.673552
    4.C        -0.029679    4.000000    1.399219
    5.C         1.197434    4.000000    0.725104
    6.C         1.226219    4.000000   -0.673843
    7.H        -2.128508    4.000000   -1.293574
    8.H        -2.184576    4.000000    1.197901
    9.H        -0.052794    4.000000    2.490767
   10.H         2.131698    4.000000    1.289416
   11.H         2.181724    4.000000   -1.201699
   12.H         0.053112    4.000000   -2.489433
 <Sep29-2020> <15:12:26>  >>>> CORORT
 <Sep29-2020> <15:12:26>  >>>> CLSMAT
 <Sep29-2020> <15:12:26>  >>>> ORTHON
 <Sep29-2020> <15:12:26>  >>>> GENPT
 <Sep29-2020> <15:12:26>  Block Length= 128
 <Sep29-2020> <15:12:27>  >>>> PTBAS
 <Sep29-2020> <15:12:27>  >>>> CYCLE
 <Sep29-2020> <15:12:27>              |Error|         MaxErr       Wt(A-DIIS)
 <Sep29-2020> <15:12:27>      1      5.99093931      0.98063528
 <Sep29-2020> <15:12:27>      2      0.89232913      0.18762757    100.0
 <Sep29-2020> <15:12:27>      3      0.52145347      0.10277720    100.0
 <Sep29-2020> <15:12:27>      4      0.74325300      0.17301442    100.0
 <Sep29-2020> <15:12:28>      5      0.07622609      0.01079906      9.9
 <Sep29-2020> <15:12:28>      6      0.01077824      0.00178731      0.8
 <Sep29-2020> <15:12:28>      7      0.00205712      0.00053658      0.0
 <Sep29-2020> <15:12:28>      8      0.00202341      0.00049710      0.0
 <Sep29-2020> <15:12:28>      9      0.00008625      0.00002203      0.0
 <Sep29-2020> <15:12:28>     10      0.00010319      0.00002621      0.0
 <Sep29-2020> <15:12:29>     11      0.00000131      0.00000034      0.0
 <Sep29-2020> <15:12:29>  SCF converged
 <Sep29-2020> <15:12:29>     12      0.00000036      0.00000008      0.0
 <Sep29-2020> <15:12:29>  >>>> TOTEN
 <Sep29-2020> <15:12:29>  >>>> POPAN
 <Sep29-2020> <15:12:29>  >>>> DEBYE
 <Sep29-2020> <15:12:29>  >>>> AMETS
 <Sep29-2020> <15:12:30>  >>>> POPUL
 <Sep29-2020> <15:12:30>     1 V(1)  0.1844012E+04
 <Sep29-2020> <15:12:30>     2 V(1)  0.1574236E+04
 <Sep29-2020> <15:12:30>     3 V(1)  0.1556934E+04
 <Sep29-2020> <15:12:30>     4 V(1)  0.1563488E+04
 <Sep29-2020> <15:12:31>     5 V(1)  0.1565442E+04
 <Sep29-2020> <15:12:31>     6 V(1)  0.1565335E+04
 <Sep29-2020> <15:12:31>     7 V(1)  0.1565273E+04
 <Sep29-2020> <15:12:31>     8 V(1)  0.1565264E+04
 <Sep29-2020> <15:12:32>     9 V(1)  0.1565261E+04
 <Sep29-2020> <15:12:32>    10 V(1)  0.1565259E+04
 <Sep29-2020> <15:12:32>    11 V(1)  0.1565259E+04
 <Sep29-2020> <15:12:32>   convergence reached
 <Sep29-2020> <15:12:32>     1 V(1)  0.2536224E+02
 <Sep29-2020> <15:12:33>     2 V(1)  0.2328895E+02
 <Sep29-2020> <15:12:33>     3 V(1)  0.2328361E+02
 <Sep29-2020> <15:12:33>     4 V(1)  0.2328286E+02
 <Sep29-2020> <15:12:33>     5 V(1)  0.2328274E+02
 <Sep29-2020> <15:12:34>     6 V(1)  0.2328276E+02
 <Sep29-2020> <15:12:34>   convergence reached
 <Sep29-2020> <15:12:34>     1 V(1)  0.1841822E+04
 <Sep29-2020> <15:12:34>     2 V(1)  0.1572260E+04
 <Sep29-2020> <15:12:34>     3 V(1)  0.1555007E+04
 <Sep29-2020> <15:12:34>     4 V(1)  0.1561548E+04
 <Sep29-2020> <15:12:35>     5 V(1)  0.1563501E+04
 <Sep29-2020> <15:12:35>     6 V(1)  0.1563405E+04
 <Sep29-2020> <15:12:35>     7 V(1)  0.1563335E+04
 <Sep29-2020> <15:12:35>     8 V(1)  0.1563325E+04
 <Sep29-2020> <15:12:36>     9 V(1)  0.1563322E+04
 <Sep29-2020> <15:12:36>    10 V(1)  0.1563320E+04
 <Sep29-2020> <15:12:36>    11 V(1)  0.1563319E+04
 <Sep29-2020> <15:12:36>   convergence reached
 <Sep29-2020> <15:12:36>     1 V(1)  0.1302835E+04
 <Sep29-2020> <15:12:37>     2 V(1)  0.1073711E+04
 <Sep29-2020> <15:12:37>     3 V(1)  0.1109175E+04
 <Sep29-2020> <15:12:38>     4 V(1)  0.1113834E+04
 <Sep29-2020> <15:12:38>     5 V(1)  0.1115386E+04
 <Sep29-2020> <15:12:38>     6 V(1)  0.1115838E+04
 <Sep29-2020> <15:12:39>     7 V(1)  0.1115924E+04
 <Sep29-2020> <15:12:39>     8 V(1)  0.1115928E+04
 <Sep29-2020> <15:12:39>     9 V(1)  0.1115924E+04
 <Sep29-2020> <15:12:40>    10 V(1)  0.1115922E+04
 <Sep29-2020> <15:12:40>    11 V(1)  0.1115921E+04
 <Sep29-2020> <15:12:40>   convergence reached
 <Sep29-2020> <15:12:41>     1 V(1)  0.1057857E+06
 <Sep29-2020> <15:12:41>     2 V(1)  0.8966013E+05
 <Sep29-2020> <15:12:42>     3 V(1)  0.8876467E+05
 <Sep29-2020> <15:12:43>     4 V(1)  0.8939090E+05
 <Sep29-2020> <15:12:43>     5 V(1)  0.8950969E+05
 <Sep29-2020> <15:12:44>     6 V(1)  0.8950234E+05
 <Sep29-2020> <15:12:44>     7 V(1)  0.8949876E+05
 <Sep29-2020> <15:12:45>     8 V(1)  0.8949821E+05
 <Sep29-2020> <15:12:46>     9 V(1)  0.8949794E+05
 <Sep29-2020> <15:12:46>    10 V(1)  0.8949782E+05
 <Sep29-2020> <15:12:47>    11 V(1)  0.8949783E+05
 <Sep29-2020> <15:12:47>   convergence reached
 <Sep29-2020> <15:12:47>     1 V(1)  0.6151017E+03
 <Sep29-2020> <15:12:48>     2 V(1)  0.4702782E+03
 <Sep29-2020> <15:12:48>     3 V(1)  0.4837083E+03
 <Sep29-2020> <15:12:49>     4 V(1)  0.4847833E+03
 <Sep29-2020> <15:12:49>     5 V(1)  0.4857916E+03
 <Sep29-2020> <15:12:50>     6 V(1)  0.4859954E+03
 <Sep29-2020> <15:12:50>     7 V(1)  0.4860278E+03
 <Sep29-2020> <15:12:51>     8 V(1)  0.4860289E+03
 <Sep29-2020> <15:12:51>     9 V(1)  0.4860278E+03
 <Sep29-2020> <15:12:51>    10 V(1)  0.4860270E+03
 <Sep29-2020> <15:12:52>    11 V(1)  0.4860269E+03
 <Sep29-2020> <15:12:52>   convergence reached
 <Sep29-2020> <15:12:52>     1 V(1)  0.2748727E+04
 <Sep29-2020> <15:12:53>     2 V(1)  0.2507386E+04
 <Sep29-2020> <15:12:53>     3 V(1)  0.2520117E+04
 <Sep29-2020> <15:12:54>     4 V(1)  0.2520476E+04
 <Sep29-2020> <15:12:54>     5 V(1)  0.2520550E+04
 <Sep29-2020> <15:12:55>     6 V(1)  0.2520548E+04
 <Sep29-2020> <15:12:55>   convergence reached
 <Sep29-2020> <15:12:55>     1 V(1)  0.1056605E+06
 <Sep29-2020> <15:12:55>     2 V(1)  0.8954760E+05
 <Sep29-2020> <15:12:56>     3 V(1)  0.8865483E+05
 <Sep29-2020> <15:12:56>     4 V(1)  0.8928017E+05
 <Sep29-2020> <15:12:57>     5 V(1)  0.8939882E+05
 <Sep29-2020> <15:12:57>     6 V(1)  0.8939213E+05
 <Sep29-2020> <15:12:58>     7 V(1)  0.8938807E+05
 <Sep29-2020> <15:12:58>     8 V(1)  0.8938745E+05
 <Sep29-2020> <15:12:59>     9 V(1)  0.8938717E+05
 <Sep29-2020> <15:12:59>    10 V(1)  0.8938705E+05
 <Sep29-2020> <15:13:00>    11 V(1)  0.8938705E+05
 <Sep29-2020> <15:13:00>   convergence reached
 <Sep29-2020> <15:13:00>     1 V(1)  0.1302508E+04
 <Sep29-2020> <15:13:01>     2 V(1)  0.1073538E+04
 <Sep29-2020> <15:13:01>     3 V(1)  0.1108935E+04
 <Sep29-2020> <15:13:02>     4 V(1)  0.1113427E+04
 <Sep29-2020> <15:13:02>     5 V(1)  0.1115197E+04
 <Sep29-2020> <15:13:03>     6 V(1)  0.1115650E+04
 <Sep29-2020> <15:13:03>     7 V(1)  0.1115741E+04
 <Sep29-2020> <15:13:04>     8 V(1)  0.1115747E+04
 <Sep29-2020> <15:13:04>     9 V(1)  0.1115742E+04
 <Sep29-2020> <15:13:05>    10 V(1)  0.1115740E+04
 <Sep29-2020> <15:13:05>    11 V(1)  0.1115740E+04
 <Sep29-2020> <15:13:05>   convergence reached
 <Sep29-2020> <15:13:05>  NORMAL TERMINATION
 <Sep29-2020> <15:13:05>  END
