

 Parallel Execution: Process Information
 ==============================================================================
 Rank   Node Name                              NodeID   MyNodeRank  NodeMaster
    0   magnesium.science.psu.edu                 0          0          0
    1   magnesium.science.psu.edu                 0          1         -1
    2   magnesium.science.psu.edu                 0          2         -1
    3   magnesium.science.psu.edu                 0          3         -1
    4   magnesium.science.psu.edu                 0          4         -1
    5   magnesium.science.psu.edu                 0          5         -1
 ==============================================================================


May use up to 7495MB of RAM as shared memory on node 0
 
TITLE None

ATOMS
1  C     0.02967353    4.00000000   -1.39670471
2  C    -1.19815941    4.00000000   -0.72516765
3  C    -1.22789117    4.00000000    0.67355706
4  C    -0.02967353    4.00000000    1.39670471
5  C     1.19815941    4.00000000    0.72516765
6  C     1.22789117    4.00000000   -0.67355706
7  H    -2.13033823    4.00000000   -1.29288705
8  H    -2.18344941    4.00000000    1.20118176
9  H    -0.05294176    4.00000000    2.48820471
10 H     2.13033823    4.00000000    1.29288705
11 H     2.18354941    4.00000000   -1.20118176
12 H     0.05284176    4.00000000   -2.48820471
END

XC
 gga BP86
end

symmetry nosym

aoresponse
 alda
 frequency 1 3.6 eV
 lifetime 0.0037
 El_Dipole_El_Dipole
 El_Dipole_El_Quadrupole
 El_Quadrupole_El_Quadrupole
 Traceless
end

Fragments
H t21.H
C t21.C
End

 *******************************************************************************
 *                                                                             *
 *  -------------------------------------                                      *
 *   Amsterdam Density Functional  (ADF)         2019                          *
 *  -------------------------------------                                      *
 *                                               r75281 2019-06-03             *
 *                                                                             *
 *                                                                             *
 *                              =================                              *
 *                              |               |                              *
 *                              |     A D F     |                              *
 *                              |               |                              *
 *                              =================                              *
 *                                                                             *
 *                                                                             *
 *   Online information and documentation:  https://www.scm.com/support/       *
 *   E-mail:  support@scm.com   info@scm.com                                   *
 *                                                                             *
 *   Scientific publications using ADF results must be properly referenced     *
 *   See the User Manuals (or the web site) for recommended citations          *
 *   The terms and conditions of the End User License Agreement apply to       *
 *   the use of ADF, https://www.scm.com/license-terms/                        *
 *                                                                             *
 **********************  x86_64_linux_intel / intelmpi  ************************
 
 Licensed to: Prof. Lasse Jensen / Penn State University / University Park / PA  / USA
 SCM User ID: u8493
  
 ADF 2019  RunTime: Sep29-2020 15:26:43  Nodes: 1  Procs: 6

 Temporary files are created in /scratch/kid_0.165550912


Communication costs MPI_COMM_WORLD:      0.633 usec per message,   0.0072 usec per 8-byte item
Communication costs for intra-node:      0.608 usec per message,   0.0073 usec per 8-byte item

 None



 ===========================
 A T T A C H E D   F I L E S
 ===========================
  



 ===============================
 M O D E L   P A R A M E T E R S
 ===============================
  
 DENSITY FUNCTIONAL POTENTIAL (scf)
    LDA:                               VWN                                      
    Gradient Corrections:              Becke88 Perdew86                        == Not Default ==

 SPIN  (restricted / unrestr.)
    Molecule:                          Restricted                               
    Fragments:                         Restricted                               

 OTHER ASPECTS
    Relativistic Corrections:          ---                                      

    Nuclear Charge Density Model:      Point Charge Nuclei                      
    Core Treatment:                    Frozen Orbital(s)                        

    Hyperfine or Zeeman Interaction:   ---                                      


 Fragment File(s)
 ----------------
 C:
         file : t21.C
         jobid: ADF 2019  RunTime: Sep29-2020 15:26:42  Nodes: 1  Procs: 1
         title: Carbon (TZP)
 H:
         file : t21.H
         jobid: ADF 2019  RunTime: Sep29-2020 15:26:41  Nodes: 1  Procs: 1
         title: Hydrogen (TZP)



                                        ************************************
                                        *  R U N   T Y P E : SINGLE POINT  *
                                        ************************************
  



 ===============
 G E O M E T R Y  ***  Planar Molecule  ***
 ===============
  

 ATOMS
 =====                            X Y Z                    CHARGE
                                (Angstrom)             Nucl     +Core       At.Mass
                       --------------------------    ----------------       -------
    1  C               0.0297    4.0000   -1.3967      6.00      6.00       12.0000
    2  C              -1.1982    4.0000   -0.7252      6.00      6.00       12.0000
    3  C              -1.2279    4.0000    0.6736      6.00      6.00       12.0000
    4  C              -0.0297    4.0000    1.3967      6.00      6.00       12.0000
    5  C               1.1982    4.0000    0.7252      6.00      6.00       12.0000
    6  C               1.2279    4.0000   -0.6736      6.00      6.00       12.0000
    7  H              -2.1303    4.0000   -1.2929      1.00      1.00        1.0078
    8  H              -2.1834    4.0000    1.2012      1.00      1.00        1.0078
    9  H              -0.0529    4.0000    2.4882      1.00      1.00        1.0078
   10  H               2.1303    4.0000    1.2929      1.00      1.00        1.0078
   11  H               2.1835    4.0000   -1.2012      1.00      1.00        1.0078
   12  H               0.0528    4.0000   -2.4882      1.00      1.00        1.0078


 FRAGMENTS
 =========                                     Atoms in this Fragment     Cart. coord.s (Angstrom)
                                               -------------------------------------------------------
    1  C                                                 1  C            0.0297    4.0000   -1.3967
    2  C                                                 2  C           -1.1982    4.0000   -0.7252
    3  C                                                 3  C           -1.2279    4.0000    0.6736
    4  C                                                 4  C           -0.0297    4.0000    1.3967
    5  C                                                 5  C            1.1982    4.0000    0.7252
    6  C                                                 6  C            1.2279    4.0000   -0.6736
    7  H                                                 7  H           -2.1303    4.0000   -1.2929
    8  H                                                 8  H           -2.1834    4.0000    1.2012
    9  H                                                 9  H           -0.0529    4.0000    2.4882
   10  H                                                10  H            2.1303    4.0000    1.2929
   11  H                                                11  H            2.1835    4.0000   -1.2012
   12  H                                                12  H            0.0528    4.0000   -2.4882


 Interatomic Distance Matrix (Angstrom)
 --------------------------------------

   1)     0.000
   2)     1.399   0.000
   3)     2.422   1.399   0.000
   4)     2.794   2.422   1.400   0.000
   5)     2.422   2.801   2.427   1.399   0.000
   6)     1.400   2.427   2.801   2.422   1.399   0.000
   7)     2.163   1.091   2.164   3.413   3.892   3.415   0.000
   8)     3.413   2.164   1.092   2.163   3.415   3.893   2.495   0.000
   9)     3.886   3.411   2.162   1.092   2.162   3.411   4.314   2.489   0.000
  10)     3.413   3.892   3.415   2.163   1.091   2.164   4.984   4.315   2.489   0.000
  11)     2.163   3.415   3.893   3.413   2.164   1.092   4.315   4.984   4.314   2.495
          0.000
  12)     1.092   2.162   3.411   3.886   3.411   2.162   2.489   4.314   4.978   4.314
          2.489   0.000

 Min. Distance =    1.0914
 Max. Distance =    4.9842



 =====================================
 S Y M M E T R Y ,   E L E C T R O N S
 =====================================
  
 Symmetry: NOSYM

 Irreducible Representations, including subspecies
 -------------------------------------------------
 A


 Configuration of Valence Electrons
 ==================================
 ( determined in the SCF procedure )

 Total:   42

 Net Charge: 0 (Nuclei minus Electrons)

 Aufbau principle for MO occupations will be applied through SCF cycle no.     150
 Thereafter, the program will assign electrons to MOs that are spatially
 similar to the occupied MOs in a "reference" cycle ("KeepOrbitals").
 The reference cycle is always the PREVIOUS cycle: it will evolve with
 the SCF procedure.
1
 ***************************************************************************************************



                                      ****************************************
                                      *  B U I L D : (Fragments, Functions)  *
                                      ****************************************
  



 =======
 S F O s  ***  (Symmetrized Fragment Orbitals)  ***
 =======
  
 SFOs are linear combinations of (valence) Fragment Orbitals (FOs), such that the SFOs transform as the
 irreducible representations of the (molecular) symmetry group. Each SFO is therefore characterized by
 an irrep of the molecule and by a few (or only one) generating FOs.
 The SFOs constitute a symmetry-adapted basis for the Fock matrix. The MO eigenvector coefficients in
 this basis provide a direct interpretation of the MOs in terms of Frontier Orbital Theory.

 The SFOs are combined with auxiliary Core Functions (CFs) to ensure orthogonalization on the (frozen)
 Core Orbitals (COs). The Core-orthogonalized SFOs (CSFOs) constitute the true Fock basis.

 The FOs, and hence also the (C)SFOs are combinations of the elementary basis functions (BAS). The basis
 functions that participate in the description of the SFOs depend on the irrep. The indices of the
 involved functions are printed below for each irrep.
 (The complete list of primitive basis functions is printed in another section)

 Total nr. of (C)SFOs (summation over all irreps) :   150

 NOTE: a (C)SFO that is defined as a combination of more than one FO is usually NOT normalized.



                                       === A ===
 Nr. of SFOs :  150
 Cartesian basis functions that participate in this irrep (total number =   156) :
      1     2     3     4     5     6     9    12     7    10
     13     8    11    14    15    16    17    18    19    20
     21    22    23    24    25    26    29    32    27    30
     33    28    31    34    35    36    37    38    39    40
     41    42    43    44    45    46    49    52    47    50
     53    48    51    54    55    56    57    58    59    60
     61    62    63    64    65    66    69    72    67    70
     73    68    71    74    75    76    77    78    79    80
     81    82    83    84    85    86    89    92    87    90
     93    88    91    94    95    96    97    98    99   100
    101   102   103   104   105   106   109   112   107   110
    113   108   111   114   115   116   117   118   119   120
    121   122   123   124   125   126   127   128   129   130
    131   132   133   134   135   136   137   138   139   140
    141   142   143   144   145   146   147   148   149   150
    151   152   153   154   155   156

    SFO  (index         Fragment          Generating    Expansion in Fragment Orbitals
  indx  incl.CFs)   Occup   Orb.Energy   FragmentType  Coeff.   Orbital     on Fragment
 --------------------------------------------------------------------------------------
     1       1      2.000     -10.058 au  C             1.00      1 S               1
                        (    -273.681 eV)
     2       2      2.000      -0.510 au  C             1.00      2 S               1
                        (     -13.876 eV)
     3       3       --         0.371 au  C             1.00      3 S               1
                        (      10.091 eV)
     4       4       --         5.428 au  C             1.00      4 S               1
                        (     147.707 eV)
     5       5       --        50.181 au  C             1.00      5 S               1
                        (    1365.486 eV)
     6       6      0.667      -0.199 au  C             1.00      1 P:x             1
                        (      -5.403 eV)
     7       7       --         0.173 au  C             1.00      2 P:x             1
                        (       4.709 eV)
     8       8       --         2.026 au  C             1.00      3 P:x             1
                        (      55.143 eV)
     9       9      0.667      -0.199 au  C             1.00      1 P:y             1
                        (      -5.403 eV)
    10      10       --         0.173 au  C             1.00      2 P:y             1
                        (       4.709 eV)
    11      11       --         2.026 au  C             1.00      3 P:y             1
                        (      55.143 eV)
    12      12      0.667      -0.199 au  C             1.00      1 P:z             1
                        (      -5.403 eV)
    13      13       --         0.173 au  C             1.00      2 P:z             1
                        (       4.709 eV)
    14      14       --         2.026 au  C             1.00      3 P:z             1
                        (      55.143 eV)
    15      15       --         1.232 au  C             1.00      1 D:z2            1
                        (      33.528 eV)
    16      16       --         1.232 au  C             1.00      1 D:x2-y2         1
                        (      33.528 eV)
    17      17       --         1.232 au  C             1.00      1 D:xy            1
                        (      33.528 eV)
    18      18       --         1.232 au  C             1.00      1 D:xz            1
                        (      33.528 eV)
    19      19       --         1.232 au  C             1.00      1 D:yz            1
                        (      33.528 eV)
    20      20      2.000     -10.058 au  C             1.00      1 S               2
                        (    -273.681 eV)
    21      21      2.000      -0.510 au  C             1.00      2 S               2
                        (     -13.876 eV)
    22      22       --         0.371 au  C             1.00      3 S               2
                        (      10.091 eV)
    23      23       --         5.428 au  C             1.00      4 S               2
                        (     147.707 eV)
    24      24       --        50.181 au  C             1.00      5 S               2
                        (    1365.486 eV)
    25      25      0.667      -0.199 au  C             1.00      1 P:x             2
                        (      -5.403 eV)
    26      26       --         0.173 au  C             1.00      2 P:x             2
                        (       4.709 eV)
    27      27       --         2.026 au  C             1.00      3 P:x             2
                        (      55.143 eV)
    28      28      0.667      -0.199 au  C             1.00      1 P:y             2
                        (      -5.403 eV)
    29      29       --         0.173 au  C             1.00      2 P:y             2
                        (       4.709 eV)
    30      30       --         2.026 au  C             1.00      3 P:y             2
                        (      55.143 eV)
    31      31      0.667      -0.199 au  C             1.00      1 P:z             2
                        (      -5.403 eV)
    32      32       --         0.173 au  C             1.00      2 P:z             2
                        (       4.709 eV)
    33      33       --         2.026 au  C             1.00      3 P:z             2
                        (      55.143 eV)
    34      34       --         1.232 au  C             1.00      1 D:z2            2
                        (      33.528 eV)
    35      35       --         1.232 au  C             1.00      1 D:x2-y2         2
                        (      33.528 eV)
    36      36       --         1.232 au  C             1.00      1 D:xy            2
                        (      33.528 eV)
    37      37       --         1.232 au  C             1.00      1 D:xz            2
                        (      33.528 eV)
    38      38       --         1.232 au  C             1.00      1 D:yz            2
                        (      33.528 eV)
    39      39      2.000     -10.058 au  C             1.00      1 S               3
                        (    -273.681 eV)
    40      40      2.000      -0.510 au  C             1.00      2 S               3
                        (     -13.876 eV)
    41      41       --         0.371 au  C             1.00      3 S               3
                        (      10.091 eV)
    42      42       --         5.428 au  C             1.00      4 S               3
                        (     147.707 eV)
    43      43       --        50.181 au  C             1.00      5 S               3
                        (    1365.486 eV)
    44      44      0.667      -0.199 au  C             1.00      1 P:x             3
                        (      -5.403 eV)
    45      45       --         0.173 au  C             1.00      2 P:x             3
                        (       4.709 eV)
    46      46       --         2.026 au  C             1.00      3 P:x             3
                        (      55.143 eV)
    47      47      0.667      -0.199 au  C             1.00      1 P:y             3
                        (      -5.403 eV)
    48      48       --         0.173 au  C             1.00      2 P:y             3
                        (       4.709 eV)
    49      49       --         2.026 au  C             1.00      3 P:y             3
                        (      55.143 eV)
    50      50      0.667      -0.199 au  C             1.00      1 P:z             3
                        (      -5.403 eV)
    51      51       --         0.173 au  C             1.00      2 P:z             3
                        (       4.709 eV)
    52      52       --         2.026 au  C             1.00      3 P:z             3
                        (      55.143 eV)
    53      53       --         1.232 au  C             1.00      1 D:z2            3
                        (      33.528 eV)
    54      54       --         1.232 au  C             1.00      1 D:x2-y2         3
                        (      33.528 eV)
    55      55       --         1.232 au  C             1.00      1 D:xy            3
                        (      33.528 eV)
    56      56       --         1.232 au  C             1.00      1 D:xz            3
                        (      33.528 eV)
    57      57       --         1.232 au  C             1.00      1 D:yz            3
                        (      33.528 eV)
    58      58      2.000     -10.058 au  C             1.00      1 S               4
                        (    -273.681 eV)
    59      59      2.000      -0.510 au  C             1.00      2 S               4
                        (     -13.876 eV)
    60      60       --         0.371 au  C             1.00      3 S               4
                        (      10.091 eV)
    61      61       --         5.428 au  C             1.00      4 S               4
                        (     147.707 eV)
    62      62       --        50.181 au  C             1.00      5 S               4
                        (    1365.486 eV)
    63      63      0.667      -0.199 au  C             1.00      1 P:x             4
                        (      -5.403 eV)
    64      64       --         0.173 au  C             1.00      2 P:x             4
                        (       4.709 eV)
    65      65       --         2.026 au  C             1.00      3 P:x             4
                        (      55.143 eV)
    66      66      0.667      -0.199 au  C             1.00      1 P:y             4
                        (      -5.403 eV)
    67      67       --         0.173 au  C             1.00      2 P:y             4
                        (       4.709 eV)
    68      68       --         2.026 au  C             1.00      3 P:y             4
                        (      55.143 eV)
    69      69      0.667      -0.199 au  C             1.00      1 P:z             4
                        (      -5.403 eV)
    70      70       --         0.173 au  C             1.00      2 P:z             4
                        (       4.709 eV)
    71      71       --         2.026 au  C             1.00      3 P:z             4
                        (      55.143 eV)
    72      72       --         1.232 au  C             1.00      1 D:z2            4
                        (      33.528 eV)
    73      73       --         1.232 au  C             1.00      1 D:x2-y2         4
                        (      33.528 eV)
    74      74       --         1.232 au  C             1.00      1 D:xy            4
                        (      33.528 eV)
    75      75       --         1.232 au  C             1.00      1 D:xz            4
                        (      33.528 eV)
    76      76       --         1.232 au  C             1.00      1 D:yz            4
                        (      33.528 eV)
    77      77      2.000     -10.058 au  C             1.00      1 S               5
                        (    -273.681 eV)
    78      78      2.000      -0.510 au  C             1.00      2 S               5
                        (     -13.876 eV)
    79      79       --         0.371 au  C             1.00      3 S               5
                        (      10.091 eV)
    80      80       --         5.428 au  C             1.00      4 S               5
                        (     147.707 eV)
    81      81       --        50.181 au  C             1.00      5 S               5
                        (    1365.486 eV)
    82      82      0.667      -0.199 au  C             1.00      1 P:x             5
                        (      -5.403 eV)
    83      83       --         0.173 au  C             1.00      2 P:x             5
                        (       4.709 eV)
    84      84       --         2.026 au  C             1.00      3 P:x             5
                        (      55.143 eV)
    85      85      0.667      -0.199 au  C             1.00      1 P:y             5
                        (      -5.403 eV)
    86      86       --         0.173 au  C             1.00      2 P:y             5
                        (       4.709 eV)
    87      87       --         2.026 au  C             1.00      3 P:y             5
                        (      55.143 eV)
    88      88      0.667      -0.199 au  C             1.00      1 P:z             5
                        (      -5.403 eV)
    89      89       --         0.173 au  C             1.00      2 P:z             5
                        (       4.709 eV)
    90      90       --         2.026 au  C             1.00      3 P:z             5
                        (      55.143 eV)
    91      91       --         1.232 au  C             1.00      1 D:z2            5
                        (      33.528 eV)
    92      92       --         1.232 au  C             1.00      1 D:x2-y2         5
                        (      33.528 eV)
    93      93       --         1.232 au  C             1.00      1 D:xy            5
                        (      33.528 eV)
    94      94       --         1.232 au  C             1.00      1 D:xz            5
                        (      33.528 eV)
    95      95       --         1.232 au  C             1.00      1 D:yz            5
                        (      33.528 eV)
    96      96      2.000     -10.058 au  C             1.00      1 S               6
                        (    -273.681 eV)
    97      97      2.000      -0.510 au  C             1.00      2 S               6
                        (     -13.876 eV)
    98      98       --         0.371 au  C             1.00      3 S               6
                        (      10.091 eV)
    99      99       --         5.428 au  C             1.00      4 S               6
                        (     147.707 eV)
   100     100       --        50.181 au  C             1.00      5 S               6
                        (    1365.486 eV)
   101     101      0.667      -0.199 au  C             1.00      1 P:x             6
                        (      -5.403 eV)
   102     102       --         0.173 au  C             1.00      2 P:x             6
                        (       4.709 eV)
   103     103       --         2.026 au  C             1.00      3 P:x             6
                        (      55.143 eV)
   104     104      0.667      -0.199 au  C             1.00      1 P:y             6
                        (      -5.403 eV)
   105     105       --         0.173 au  C             1.00      2 P:y             6
                        (       4.709 eV)
   106     106       --         2.026 au  C             1.00      3 P:y             6
                        (      55.143 eV)
   107     107      0.667      -0.199 au  C             1.00      1 P:z             6
                        (      -5.403 eV)
   108     108       --         0.173 au  C             1.00      2 P:z             6
                        (       4.709 eV)
   109     109       --         2.026 au  C             1.00      3 P:z             6
                        (      55.143 eV)
   110     110       --         1.232 au  C             1.00      1 D:z2            6
                        (      33.528 eV)
   111     111       --         1.232 au  C             1.00      1 D:x2-y2         6
                        (      33.528 eV)
   112     112       --         1.232 au  C             1.00      1 D:xy            6
                        (      33.528 eV)
   113     113       --         1.232 au  C             1.00      1 D:xz            6
                        (      33.528 eV)
   114     114       --         1.232 au  C             1.00      1 D:yz            6
                        (      33.528 eV)
   115     115      1.000      -0.244 au  H             1.00      1 S               7
                        (      -6.626 eV)
   116     116       --         0.093 au  H             1.00      2 S               7
                        (       2.536 eV)
   117     117       --         1.515 au  H             1.00      3 S               7
                        (      41.236 eV)
   118     118       --         0.400 au  H             1.00      1 P:x             7
                        (      10.872 eV)
   119     119       --         0.400 au  H             1.00      1 P:y             7
                        (      10.872 eV)
   120     120       --         0.400 au  H             1.00      1 P:z             7
                        (      10.872 eV)
   121     121      1.000      -0.244 au  H             1.00      1 S               8
                        (      -6.626 eV)
   122     122       --         0.093 au  H             1.00      2 S               8
                        (       2.536 eV)
   123     123       --         1.515 au  H             1.00      3 S               8
                        (      41.236 eV)
   124     124       --         0.400 au  H             1.00      1 P:x             8
                        (      10.872 eV)
   125     125       --         0.400 au  H             1.00      1 P:y             8
                        (      10.872 eV)
   126     126       --         0.400 au  H             1.00      1 P:z             8
                        (      10.872 eV)
   127     127      1.000      -0.244 au  H             1.00      1 S               9
                        (      -6.626 eV)
   128     128       --         0.093 au  H             1.00      2 S               9
                        (       2.536 eV)
   129     129       --         1.515 au  H             1.00      3 S               9
                        (      41.236 eV)
   130     130       --         0.400 au  H             1.00      1 P:x             9
                        (      10.872 eV)
   131     131       --         0.400 au  H             1.00      1 P:y             9
                        (      10.872 eV)
   132     132       --         0.400 au  H             1.00      1 P:z             9
                        (      10.872 eV)
   133     133      1.000      -0.244 au  H             1.00      1 S              10
                        (      -6.626 eV)
   134     134       --         0.093 au  H             1.00      2 S              10
                        (       2.536 eV)
   135     135       --         1.515 au  H             1.00      3 S              10
                        (      41.236 eV)
   136     136       --         0.400 au  H             1.00      1 P:x            10
                        (      10.872 eV)
   137     137       --         0.400 au  H             1.00      1 P:y            10
                        (      10.872 eV)
   138     138       --         0.400 au  H             1.00      1 P:z            10
                        (      10.872 eV)
   139     139      1.000      -0.244 au  H             1.00      1 S              11
                        (      -6.626 eV)
   140     140       --         0.093 au  H             1.00      2 S              11
                        (       2.536 eV)
   141     141       --         1.515 au  H             1.00      3 S              11
                        (      41.236 eV)
   142     142       --         0.400 au  H             1.00      1 P:x            11
                        (      10.872 eV)
   143     143       --         0.400 au  H             1.00      1 P:y            11
                        (      10.872 eV)
   144     144       --         0.400 au  H             1.00      1 P:z            11
                        (      10.872 eV)
   145     145      1.000      -0.244 au  H             1.00      1 S              12
                        (      -6.626 eV)
   146     146       --         0.093 au  H             1.00      2 S              12
                        (       2.536 eV)
   147     147       --         1.515 au  H             1.00      3 S              12
                        (      41.236 eV)
   148     148       --         0.400 au  H             1.00      1 P:x            12
                        (      10.872 eV)
   149     149       --         0.400 au  H             1.00      1 P:y            12
                        (      10.872 eV)
   150     150       --         0.400 au  H             1.00      1 P:z            12
                        (      10.872 eV)



 ================================
 (Slater-type)  F U N C T I O N S  ***  (Basis and Fit)  ***
 ================================
  

 Atom Type    1  (C)
 ==============

 Valence Basis Sets:   9
 -----------------------
   1 S    7.680000
   1 S    5.000000
   2 S    1.280000
   2 S    2.100000
   2 S    4.600000
   2 P    0.820000
   2 P    1.480000
   2 P    2.940000
   3 D    2.200000

 Atom Type    2  (H)
 ==============

 Valence Basis Sets:   4
 -----------------------
   1 S    0.690000
   1 S    0.920000
   1 S    1.580000
   2 P    1.250000


 BAS: List of all Elementary Cartesian Basis Functions
 =====================================================

 The numbering in the list below (to the right of the function characteristics) is referred
 to in print-outs of MO eigenvectors and Mulliken populations in the BAS representation
 (as contrasted to the SFO representation).

 Notes:
 1. The functions are characterized by a polynomial prefactor (powers of x,y,z and r) and
    an exponential decay factor alpha.
 2. Since the basis sets are specific for an atom TYPE, the individual functions occur on
    all atoms of that type.
 3. The word 'Core' in the left margin signals that it is a Core Function (CF) : not a
    degree of freedom in the valence set, but only used to ensure orthogonalization of
    the other valence basis functions on the frozen Core Orbitals.


 (power of) X  Y  Z  R     Alpha  on Atom
            ==========     =====     ==========

 C                                    1    2    3    4    5    6
                                  ---------------------------------------------------------------------------
            0  0  0  0     7.680      1   21   41   61   81  101
            0  0  0  0     5.000      2   22   42   62   82  102
            0  0  0  1     1.280      3   23   43   63   83  103
            0  0  0  1     2.100      4   24   44   64   84  104
            0  0  0  1     4.600      5   25   45   65   85  105
            1  0  0  0     0.820      6   26   46   66   86  106
            0  1  0  0     0.820      7   27   47   67   87  107
            0  0  1  0     0.820      8   28   48   68   88  108
            1  0  0  0     1.480      9   29   49   69   89  109
            0  1  0  0     1.480     10   30   50   70   90  110
            0  0  1  0     1.480     11   31   51   71   91  111
            1  0  0  0     2.940     12   32   52   72   92  112
            0  1  0  0     2.940     13   33   53   73   93  113
            0  0  1  0     2.940     14   34   54   74   94  114
            2  0  0  0     2.200     15   35   55   75   95  115
            1  1  0  0     2.200     16   36   56   76   96  116
            1  0  1  0     2.200     17   37   57   77   97  117
            0  2  0  0     2.200     18   38   58   78   98  118
            0  1  1  0     2.200     19   39   59   79   99  119
            0  0  2  0     2.200     20   40   60   80  100  120

 H                                    7    8    9   10   11   12
                                  ---------------------------------------------------------------------------
            0  0  0  0     0.690    121  127  133  139  145  151
            0  0  0  0     0.920    122  128  134  140  146  152
            0  0  0  0     1.580    123  129  135  141  147  153
            1  0  0  0     1.250    124  130  136  142  148  154
            0  1  0  0     1.250    125  131  137  143  149  155
            0  0  1  0     1.250    126  132  138  144  150  156

 Total number of charge fitting functions (nprimf)       804
 Total number of Cartesian basis functions (naos)        156
 Total number of Cartesian core functions  (ncos)          0

1
 ***************************************************************************************************



                                              ***********************
                                              *  T E C H N I C A L  *
                                              ***********************
  



 =============================================================
 P A R A L L E L I Z A T I O N  and  V E C T O R I Z A T I O N
 =============================================================
  
 Nr of parallel processes:                                6
 Maximum vector length in NumInt loops:                 128



 =====================
 S C F   U P D A T E S
 =====================
  
 Max. nr. of cycles:                               300
 Convergence criterion:                              0.0000010000
   secondary criterion:                              0.0010000000

 Mix parameter (when DIIS does not apply):           0.2000000000
 Mixed ADIIS+SDIIS will be used                  
    Max number of expansion vectors:                10
    Pure ADIIS when Max([F,P]) is above              0.1000000000
    Pure SDIIS when Max([F,P]) is below              0.0010000000
 Automatic ElectronSmearing (in case of problematic SCF convergence) disabled



 =================
 P R E C I S I O N  ***  (General: NumInt, NeglectFunctionTails, ...)  ***
 =================
  

 NumInt:           Target precision:                 4.0000000000
 -------           Initial precision:                4.0000000000
                   Min. precision (optimization):    4.0000000000

 Neglect Functions:          Basis functions:        0.1000000000E-13
 ------------------          Fit functions:          0.1000000000E-13



 ===========================
 L I N E A R   S C A L I N G
 ===========================
  

 Cut-off radii density fit:                        0.1000000000E-07
 Overlap cut-off criterion AO matrix elements:     0.1000000000E-05
 Cut-offs for Coulomb potential and fitted density:0.1000000000E-07
 Cut-off criterion for Coulomb multipole terms:    0.1000000000E-07
 Progressive Convergence parameter:                 0.000000000    
1
 ***************************************************************************************************



                                            ***************************
                                            *  C O M P U T A T I O N  *
                                            ***************************
  

 Number of elements of the density matrix on this node (used, total):      1962     12246



 ===========================================
 Numerical Integration : Fuzzy Cells (Becke)
 ===========================================
  
 Becke grid quality: NORMAL         
  
 Lebedev angular grid order:             min:  11 max:  23
 Nr. of radial points:                   min:  46 max:  52

 Total nr. of points:      75660
 Nr. of blocks:              592
 Block length:               128
 Nr. of dummy points:        116


 Test of Precision of the Numerical Integration Grid
 ===================================================

 Integral of the Total Core Density:                   0.00000000000000



 ========================
 Density Fitting (zlmFit)
 ========================
  
 ZlmFit Fit Quality: NORMAL         
  
 Max L-expansion:                        min:   5 max:   6
 Nr. of radial interpolation points:     min:  36 max:  48



 =====
 S C F  ***  ScaSCF  ***
 =====
  
 Initial density matrix is calculated as sum of fragments

 CYCLE    1
 SCF Error: norm([F,P])=      5.990913971461, max([F,P])=      0.980223248003
 orbitals (Q,E):
 ---------------
 A :12...31          ( 2.00    -0.6583)  ( 2.00    -0.6250)  ( 2.00    -0.5884)  ( 2.00    -0.5694)
                     ( 2.00    -0.5686)  ( 2.00    -0.5031)  ( 2.00    -0.5018)  ( 2.00    -0.5014)
                     ( 2.00    -0.4057)  ( 2.00    -0.4054)  ( 0.00    -0.2151)  ( 0.00    -0.2151)
                     ( 0.00    -0.0768)  ( 0.00    -0.0731)  ( 0.00    -0.0375)  ( 0.00    -0.0375)
                     ( 0.00    -0.0112)  ( 0.00    -0.0111)  ( 0.00     0.0270)  ( 0.00     0.0510)

 CYCLE    2
   MIX coefficients:  0.8000  0.2000
 SCF Error: norm([F,P])=      0.892329176864, max([F,P])=      0.187200131936
 orbitals (Q,E):
 ---------------
 A :12...22          ( 2.00    -0.5946)  ( 2.00    -0.5421)  ( 2.00    -0.5328)  ( 2.00    -0.5026)
                     ( 2.00    -0.5017)  ( 2.00    -0.4366)  ( 2.00    -0.4346)  ( 2.00    -0.4341)
                     ( 2.00    -0.3390)  ( 2.00    -0.3387)  ( 0.00    -0.1501)

 CYCLE    3
  SDIIS (wt  0.000): -1.2669  2.2669
 A-DIIS (wt  1.000):  0.0000  1.0000
  DIIS coefficients:  0.0000  1.0000
 SCF Error: norm([F,P])=      0.521454452810, max([F,P])=      0.102598562294
 orbitals (Q,E):
 ---------------
 A :12...22          ( 2.00    -0.3986)  ( 2.00    -0.3564)  ( 2.00    -0.2970)  ( 2.00    -0.2960)
                     ( 2.00    -0.2951)  ( 2.00    -0.2475)  ( 2.00    -0.2229)  ( 2.00    -0.2225)
                     ( 2.00    -0.1500)  ( 2.00    -0.1496)  ( 0.00     0.0285)

 CYCLE    4
  SDIIS (wt  0.000):  0.1837  0.3521  0.4642
 A-DIIS (wt  1.000): -0.0000  0.6402  0.3598
  DIIS coefficients: -0.0000  0.6402  0.3598
 SCF Error: norm([F,P])=      0.743257025576, max([F,P])=      0.172814419293
 orbitals (Q,E):
 ---------------
 A :12...22          ( 2.00    -0.4673)  ( 2.00    -0.4038)  ( 2.00    -0.3933)  ( 2.00    -0.3712)
                     ( 2.00    -0.3703)  ( 2.00    -0.3293)  ( 2.00    -0.2973)  ( 2.00    -0.2967)
                     ( 2.00    -0.2287)  ( 2.00    -0.2284)  ( 0.00    -0.0405)

 CYCLE    5
  SDIIS (wt  0.902): -0.0172  0.2160  0.0732  0.7280
 A-DIIS (wt  0.098):  0.0000  0.0000  0.0000  1.0000
  DIIS coefficients: -0.0156  0.1949  0.0661  0.7546
 SCF Error: norm([F,P])=      0.076226697487, max([F,P])=      0.010660176535
 orbitals (Q,E):
 ---------------
 A :12...22          ( 2.00    -0.4793)  ( 2.00    -0.4187)  ( 2.00    -0.4084)  ( 2.00    -0.3831)
                     ( 2.00    -0.3822)  ( 2.00    -0.3380)  ( 2.00    -0.3112)  ( 2.00    -0.3107)
                     ( 2.00    -0.2386)  ( 2.00    -0.2382)  ( 0.00    -0.0511)

 CYCLE    6
  SDIIS (wt  0.993): -0.0028  0.0315  0.0082  0.1927  0.7704
 A-DIIS (wt  0.007):  0.0000  0.0000  0.0000  0.0000  1.0000
  DIIS coefficients: -0.0028  0.0313  0.0082  0.1913  0.7720
 SCF Error: norm([F,P])=      0.010700840119, max([F,P])=      0.001712203436
 orbitals (Q,E):
 ---------------
 A :12...22          ( 2.00    -0.4790)  ( 2.00    -0.4180)  ( 2.00    -0.4074)  ( 2.00    -0.3829)
                     ( 2.00    -0.3820)  ( 2.00    -0.3374)  ( 2.00    -0.3106)  ( 2.00    -0.3101)
                     ( 2.00    -0.2378)  ( 2.00    -0.2375)  ( 0.00    -0.0502)

 CYCLE    7
  SDIIS (wt  1.000):  0.0005  0.0051  0.0011  0.0414  0.1936  0.7584
  DIIS coefficients:  0.0005  0.0051  0.0011  0.0414  0.1936  0.7584
 SCF Error: norm([F,P])=      0.001386377789, max([F,P])=      0.000323159481
 orbitals (Q,E):
 ---------------
 A :12...22          ( 2.00    -0.4791)  ( 2.00    -0.4181)  ( 2.00    -0.4075)  ( 2.00    -0.3831)
                     ( 2.00    -0.3821)  ( 2.00    -0.3376)  ( 2.00    -0.3107)  ( 2.00    -0.3102)
                     ( 2.00    -0.2380)  ( 2.00    -0.2376)  ( 0.00    -0.0504)

 CYCLE    8
  SDIIS (wt  1.000):  0.0007  0.0007  0.0000  0.0124  0.0690  0.5073  0.4098
  DIIS coefficients:  0.0007  0.0007  0.0000  0.0124  0.0690  0.5073  0.4098
 SCF Error: norm([F,P])=      0.001006917766, max([F,P])=      0.000228772498
 orbitals (Q,E):
 ---------------
 A :12...22          ( 2.00    -0.4791)  ( 2.00    -0.4181)  ( 2.00    -0.4075)  ( 2.00    -0.3830)
                     ( 2.00    -0.3821)  ( 2.00    -0.3376)  ( 2.00    -0.3108)  ( 2.00    -0.3102)
                     ( 2.00    -0.2380)  ( 2.00    -0.2377)  ( 0.00    -0.0504)

 CYCLE    9
  SDIIS (wt  1.000):  0.0001 -0.0002 -0.0000 -0.0004 -0.0008  0.0131  0.0625  0.9258
  DIIS coefficients:  0.0001 -0.0002 -0.0000 -0.0004 -0.0008  0.0131  0.0625  0.9258
 SCF Error: norm([F,P])=      0.000062358096, max([F,P])=      0.000013445882
 orbitals (Q,E):
 ---------------
 A :12...22          ( 2.00    -0.4791)  ( 2.00    -0.4181)  ( 2.00    -0.4076)  ( 2.00    -0.3831)
                     ( 2.00    -0.3821)  ( 2.00    -0.3376)  ( 2.00    -0.3108)  ( 2.00    -0.3103)
                     ( 2.00    -0.2380)  ( 2.00    -0.2377)  ( 0.00    -0.0504)

 CYCLE   10
  SDIIS (wt  1.000):  0.0000 -0.0001 -0.0000 -0.0002 -0.0004  0.0056  0.0278  0.4158  0.5515
  DIIS coefficients:  0.0000 -0.0001 -0.0000 -0.0002 -0.0004  0.0056  0.0278  0.4158  0.5515
 SCF Error: norm([F,P])=      0.000007842870, max([F,P])=      0.000001949736
 orbitals (Q,E):
 ---------------
 A :12...22          ( 2.00    -0.4791)  ( 2.00    -0.4181)  ( 2.00    -0.4076)  ( 2.00    -0.3831)
                     ( 2.00    -0.3821)  ( 2.00    -0.3376)  ( 2.00    -0.3108)  ( 2.00    -0.3103)
                     ( 2.00    -0.2380)  ( 2.00    -0.2377)  ( 0.00    -0.0504)

 CYCLE   11
  SDIIS (wt  1.000):  0.0000 -0.0000 -0.0000  0.0000 -0.0000 -0.0001 -0.0005 -0.0053  0.5115  0.4945
  DIIS coefficients:  0.0000 -0.0000 -0.0000  0.0000 -0.0000 -0.0001 -0.0005 -0.0053  0.5115  0.4945
 SCF Error: norm([F,P])=      0.000008007239, max([F,P])=      0.000002025004
 orbitals (Q,E):
 ---------------
 A :12...22          ( 2.00    -0.4791)  ( 2.00    -0.4181)  ( 2.00    -0.4076)  ( 2.00    -0.3831)
                     ( 2.00    -0.3821)  ( 2.00    -0.3376)  ( 2.00    -0.3108)  ( 2.00    -0.3103)
                     ( 2.00    -0.2380)  ( 2.00    -0.2377)  ( 0.00    -0.0504)

 CYCLE   12
  SDIIS (wt  1.000): -0.0000 -0.0000  0.0000 -0.0000 -0.0001 -0.0003 -0.0040  0.1328  0.1299  0.7417
  DIIS coefficients: -0.0000 -0.0000  0.0000 -0.0000 -0.0001 -0.0003 -0.0040  0.1328  0.1299  0.7417
 SCF Error: norm([F,P])=      0.000000105031, max([F,P])=      0.000000021000
 orbitals (Q,E):
 ---------------
 A :12...22          ( 2.00    -0.4791)  ( 2.00    -0.4181)  ( 2.00    -0.4076)  ( 2.00    -0.3831)
                     ( 2.00    -0.3821)  ( 2.00    -0.3376)  ( 2.00    -0.3108)  ( 2.00    -0.3103)
                     ( 2.00    -0.2380)  ( 2.00    -0.2377)  ( 0.00    -0.0504)

 SCF CONVERGED

 CYCLE   13
1
 ***************************************************************************************************



                                                *******************
                                                *  R E S U L T S  *
                                                *******************
  
 *** Using FIT density in Focky
  SDIIS (wt  1.000): -0.0000  0.0000 -0.0000 -0.0000 -0.0001 -0.0014  0.0489  0.0480  0.4464  0.4583
  DIIS coefficients: -0.0000  0.0000 -0.0000 -0.0000 -0.0001 -0.0014  0.0489  0.0480  0.4464  0.4583
 SCF Error: norm([F,P])=      0.000000078426, max([F,P])=      0.000000019801

 Orbital Energies, per Irrep and Spin:
 ======================================
                        Occup              E (au)              E (eV)       Diff (eV) with prev. cycle
                        -----      --------------------        ------       --------------------------
 A
              12        2.000     -0.47914020013471E+00       -13.038              -5.13E-09
              13        2.000     -0.41811932046433E+00       -11.378              -5.12E-09
              14        2.000     -0.40755442691948E+00       -11.090               7.05E-10
              15        2.000     -0.38305754550008E+00       -10.424              -5.47E-11
              16        2.000     -0.38211337515854E+00       -10.398              -7.57E-09
              17        2.000     -0.33758490201576E+00        -9.186              -3.14E-09
              18        2.000     -0.31076338289791E+00        -8.456               1.21E-09
              19        2.000     -0.31025373832306E+00        -8.442              -5.57E-09
              20        2.000     -0.23803017044238E+00        -6.477              -2.93E-10
              21        2.000     -0.23768208272846E+00        -6.468              -4.20E-09
              22        0.000     -0.50439020218335E-01        -1.373
              23        0.000     -0.50290771084913E-01        -1.368
              24        0.000      0.20307871340815E-02         0.055
              25        0.000      0.27823268785208E-01         0.757
              26        0.000      0.27870554662370E-01         0.758
              27        0.000      0.60677813402283E-01         1.651
              28        0.000      0.60790134402411E-01         1.654
              29        0.000      0.90652260391985E-01         2.467
              30        0.000      0.96115067996348E-01         2.615
              31        0.000      0.14211770950598E+00         3.867
  
 HOMO :       21 A                -0.23768208272846E+00
 LUMO :       22 A                -0.50439020218335E-01
  


 All Electron Calculation, thus no Orbital Energies of the Core Orbitals are calculated


 Fit test: (difference of exact and fit density, squared integrated, result summed over spins)
         Sum-of-Fragments:                             0.00000000048364
         Orthogonalized Fragments:                     0.00013292460446
         SCF:                                          0.00048704818547



 ==========================
 Electron Density at Nuclei
 ==========================
  
 The electron density is calculated at points on a small sphere around the center of a nucleus.
 The printed electron density is the average electron density on these points.
 The radius of the sphere is the printed approximate finite nuclear radius.

         Atom        Nuclear Radius (Angstrom)             Electron Density (a.u.)
         ----        -------------------------             -----------------------
     1)   C                 0.0000320678                              126.51460
     2)   C                 0.0000320678                              126.51566
     3)   C                 0.0000320678                              126.51460
     4)   C                 0.0000320678                              126.51460
     5)   C                 0.0000320678                              126.51565
     6)   C                 0.0000320678                              126.51458
     7)   H                 0.0000181514                                0.49869
     8)   H                 0.0000181514                                0.49864
     9)   H                 0.0000181514                                0.49874
    10)   H                 0.0000181514                                0.49869
    11)   H                 0.0000181514                                0.49859
    12)   H                 0.0000181514                                0.49874



 =======================================
 M U L L I K E N   P O P U L A T I O N S
 =======================================
  
 The survey below gives for each atom:
 a) the total charge (Z minus electrons)
 b) the net spin polarization (nr of electrons spin-A minus spin-B)
 c) for each spin the atomic electron valence density (integrated) per L-value.

 Atom              Charge    Spin density          S         P         D         F
 ----              ------    ------------       ------    ------    ------    ------
 1 C               0.1757                       3.0647    2.6986    0.0609    0.0000
 2 C               0.1755                       3.0651    2.6984    0.0610    0.0000
 3 C               0.1754                       3.0651    2.6986    0.0610    0.0000
 4 C               0.1757                       3.0647    2.6986    0.0609    0.0000
 5 C               0.1755                       3.0651    2.6984    0.0610    0.0000
 6 C               0.1753                       3.0651    2.6986    0.0610    0.0000
 7 H              -0.1760                       1.1045    0.0715    0.0000    0.0000
 8 H              -0.1757                       1.1043    0.0714    0.0000    0.0000
 9 H              -0.1750                       1.1036    0.0714    0.0000    0.0000
 10 H             -0.1760                       1.1045    0.0715    0.0000    0.0000
 11 H             -0.1757                       1.1043    0.0714    0.0000    0.0000
 12 H             -0.1749                       1.1036    0.0714    0.0000    0.0000

 Populations of individual BAS functions
 ----------------------------------------
 1 C            0.4869  1.5144  0.2295  0.8873 -0.0535 -0.1038  0.1477 -0.2375  0.8055  0.6779
                0.8823  0.2000  0.1366  0.1898  0.0269  0.0122  0.0174 -0.0175  0.0040  0.0180
 2 C            0.4870  1.5144  0.2299  0.8873 -0.0535 -0.2021  0.1471 -0.1398  0.8620  0.6782
                0.8265  0.1926  0.1366  0.1974  0.0181  0.0062  0.0221 -0.0176  0.0100  0.0222
 3 C            0.4870  1.5144  0.2299  0.8873 -0.0535 -0.2070  0.1473 -0.1346  0.8647  0.6781
                0.8236  0.1922  0.1366  0.1978  0.0180  0.0059  0.0216 -0.0175  0.0103  0.0227
 4 C            0.4869  1.5144  0.2295  0.8873 -0.0535 -0.1038  0.1477 -0.2375  0.8055  0.6779
                0.8823  0.2000  0.1366  0.1898  0.0269  0.0122  0.0174 -0.0175  0.0040  0.0180
 5 C            0.4870  1.5144  0.2299  0.8873 -0.0535 -0.2021  0.1471 -0.1398  0.8620  0.6782
                0.8265  0.1926  0.1366  0.1974  0.0181  0.0062  0.0221 -0.0176  0.0100  0.0222
 6 C            0.4870  1.5144  0.2300  0.8873 -0.0535 -0.2070  0.1473 -0.1346  0.8647  0.6781
                0.8236  0.1922  0.1366  0.1978  0.0180  0.0059  0.0216 -0.0175  0.0103  0.0227
 7 H            0.2098  0.5759  0.3188  0.0288  0.0217  0.0209
 8 H            0.2093  0.5761  0.3188  0.0294  0.0217  0.0203
 9 H            0.2085  0.5761  0.3190  0.0162  0.0217  0.0334
 10 H           0.2097  0.5760  0.3188  0.0288  0.0217  0.0209
 11 H           0.2093  0.5762  0.3187  0.0294  0.0217  0.0203
 12 H           0.2085  0.5761  0.3190  0.0162  0.0217  0.0334

 Gross Charges per Atom (Z minus electrons)
 ==========================================
             0.1757    0.1755    0.1754    0.1757    0.1755    0.1753   -0.1760   -0.1757   -0.1750   -0.1760
            -0.1757   -0.1749
 Net Total: -0.00000000


 Atom-Atom Population Matrix (off-diagonal elements not doubled)
 ===============================================================

     1 :     4.5229
     2 :     0.5418    4.5223
     3 :    -0.0108    0.5416    4.5224
     4 :    -0.0560   -0.0107    0.5419    4.5229
     5 :    -0.0107   -0.0554   -0.0104    0.5418    4.5223
     6 :     0.5419   -0.0104   -0.0554   -0.0108    0.5416    4.5224
     7 :    -0.0535    0.3939   -0.0536    0.0021    0.0041    0.0022    0.9820
     8 :     0.0021   -0.0536    0.3939   -0.0535    0.0022    0.0041   -0.0474    0.9817
     9 :     0.0041    0.0021   -0.0534    0.3939   -0.0534    0.0021   -0.0039   -0.0477    0.9810
    10 :     0.0021    0.0041    0.0022   -0.0535    0.3939   -0.0536    0.0015   -0.0038   -0.0477    0.9820
    11 :    -0.0535    0.0022    0.0041    0.0021   -0.0536    0.3939   -0.0038    0.0015   -0.0039   -0.0474
             0.9817
    12 :     0.3939   -0.0534    0.0021    0.0041    0.0021   -0.0534   -0.0477   -0.0039    0.0016   -0.0039
            -0.0476    0.9810



 =================================================
 H I R S H F E L D   C H A R G E   A N A L Y S I S
 =================================================
  
 For each fragment: the (numerical) integral of rho(scf) * rho(fragment)/rho(sum-of-fragments)
 (nuclear charges are included, electrons are counted negative)

 The fragments and their ordering are defined in the early G E O M E T R Y output section.
 If you use single-atom fragments, this usually implies that all atoms of the same
 chemical type are grouped together. This may not be the order in which you listed them
 in the input file!

    1  C                        -0.0463
    2  C                        -0.0463
    3  C                        -0.0463
    4  C                        -0.0463
    5  C                        -0.0463
    6  C                        -0.0463
    7  H                         0.0465
    8  H                         0.0464
    9  H                         0.0460
   10  H                         0.0465
   11  H                         0.0464
   12  H                         0.0460

 Sum of these charges (accuracy NumInt/Tails) =          -0.00005639



 =============================
 V O R O N O I   C H A R G E S
 =============================
  
 For each atom: the (numerical) integral of the total electronic charge density in its Voronoi cell,
 i.e. the region of space that is closer to that atom than to any other atom.
 (cf. Wigner-Seitz cells in crystals)

 Within the Voronoi cell the subintegrals over the atomic sphere and the remaining part are evaluated
 separately to give the numbers of electrons (negative charge) in these regions.
 The net total charge in the cell (including the nuclear charge) is also given.

 Values are provided for
    a) the Initial (sum-of-fragments) density
    b) the Orthogonalized-Fragments density
    c) the SCF density
    d) the Voronoi Deformation Density (VDD): the difference SCF-Initial for the complete atomic cell


  Atom                Initial                    OrthFrag                   SCF
             Sphere RestCell NetTotal   Sphere RestCell NetTotal   Sphere RestCell NetTotal      VDD
 -----       ------------------------   ------------------------   ------------------------    -----
    1 C      -2.268   -3.186    0.545   -2.452   -3.137    0.411   -2.303   -3.207    0.490   -0.055
    2 C      -2.269   -3.190    0.542   -2.452   -3.137    0.411   -2.303   -3.207    0.490   -0.052
    3 C      -2.269   -3.184    0.547   -2.452   -3.139    0.409   -2.303   -3.208    0.489   -0.058
    4 C      -2.268   -3.186    0.545   -2.452   -3.137    0.411   -2.303   -3.207    0.490   -0.055
    5 C      -2.269   -3.190    0.542   -2.452   -3.137    0.411   -2.303   -3.207    0.490   -0.052
    6 C      -2.269   -3.184    0.547   -2.452   -3.139    0.409   -2.303   -3.208    0.489   -0.058
    7 H      -0.075   -1.473   -0.548   -0.096   -1.317   -0.413   -0.109   -1.384   -0.493    0.055
    8 H      -0.075   -1.470   -0.544   -0.096   -1.313   -0.408   -0.109   -1.379   -0.488    0.057
    9 H      -0.075   -1.467   -0.542   -0.096   -1.313   -0.409   -0.109   -1.380   -0.489    0.053
   10 H      -0.075   -1.473   -0.548   -0.096   -1.317   -0.413   -0.109   -1.384   -0.493    0.055
   11 H      -0.075   -1.470   -0.544   -0.096   -1.313   -0.408   -0.109   -1.379   -0.488    0.057
   12 H      -0.075   -1.467   -0.542   -0.096   -1.313   -0.409   -0.109   -1.380   -0.489    0.053
 ---------------------------------------------------------------------------------------------------
 Total NetCharge:              -0.000                     -0.000                     -0.000    0.000
 (accuracy NumInt/Tails)

 Remark: the 'NetTotal' Voronoi charges often do not match the Mulliken and/or Hirshfeld charges very
 well. This is caused by the fact that chemically different atoms are not treated in accordance with
 their relative sizes. (Voronoi cells are defined by boundary planes halfway between the atoms.)
 However, the CHANGES in charge, comparing 'Initial' to 'SCF' for instance, do give a fair indication
 of the flow of charge caused by the relaxation from sum-of-fragments to self-consistency.

 Warning: the absolute accuracy of the VDD charges obtained using the Fuzzy Cells (Becke) integration
 scheme is much poorer than the one obtained with an 'equivalent' Voronoi integration grid. 



 =================================================================
 M U L T I P O L E   D E R I V E D   C H A R G E   A N A L Y S I S
 =================================================================

 This charge analysis uses the atomic multipoles (obtained from the fitted density) up to some level X,
 and reconstructs these multipoles exactly (up to level X) by distributing charges over all atoms.
 This is achieved by using Lagrange multipliers and a weight function to keep the multipoles local.

 Dummy atoms can be included (by setting INCDUM in MDC-block to 1) to obtain a fractional charge.
 This is generally useful and necessary only for small symmetrical molecules, when there are not
 enough degrees of freedom to reconstruct the multipoles.

 Since the atomic multipoles are reconstructed up to level X,
 the molecular multipoles are represented also up to level X.
 The recommended level is to reconstruct up to quadrupole : -> MDC-q charges.

 See: M. Swart, P.Th. van Duijnen, J.G. Snijders, J.Comput.Chem., (2001), p. 79-88.

 ------------------------------------------------------------- 
 Atomic electronic multipole moments from SCF equations (a.u.)
 ------------------------------------------------------------- 

   atom        charge        dip-x     dip-y     dip-z      quad-xx   quad-xy   quad-xz   quad-yy   quad-yz   quad-zz
 --------------------------------------------------------------------------------------------------------------------
    1 C      0.060749     0.000983  0.000000 -0.047165     0.470294 -0.000000 -0.000693 -0.997050 -0.000000  0.526756
    2 C      0.060514    -0.041944 -0.000000 -0.025758     0.508145 -0.000000  0.015544 -0.993667  0.000000  0.485522
    3 C      0.060656    -0.042350 -0.000000  0.023565     0.511824 -0.000000 -0.015695 -0.994702  0.000000  0.482877
    4 C      0.060750    -0.001005  0.000000  0.047166     0.470308 -0.000000 -0.000740 -0.997052  0.000000  0.526744
    5 C      0.060513     0.041942 -0.000000  0.025757     0.508153 -0.000000  0.015548 -0.993664  0.000000  0.485511
    6 C      0.060647     0.042324  0.000000 -0.023539     0.511844 -0.000000 -0.015671 -0.994699 -0.000000  0.482855
    7 H     -0.060482    -0.019477  0.000000 -0.011997     0.159888  0.000000  0.080692 -0.195271 -0.000000  0.035384
    8 H     -0.060467    -0.019864  0.000000  0.011097     0.170275 -0.000000 -0.076816 -0.195567 -0.000000  0.025292
    9 H     -0.060972    -0.000492  0.000000  0.022452    -0.038314  0.000000 -0.003866 -0.195081  0.000000  0.233395
   10 H     -0.060482     0.019478  0.000000  0.011998     0.159888 -0.000000  0.080694 -0.195270  0.000000  0.035382
   11 H     -0.060456     0.019883  0.000000 -0.011098     0.170281 -0.000000 -0.076809 -0.195562  0.000000  0.025281
   12 H     -0.060971     0.000475  0.000000 -0.022452    -0.038319  0.000000 -0.003848 -0.195080  0.000000  0.233399

 --------------------------------------- 
 Multipole derived atomic charges (a.u.)
 --------------------------------------- 

 The MDC-m charges are just the Monopole terms in the multipole expansion, while for the MDC-d charges
 also the Dipoles are reconstructed. The usually preferred charges are the MDC-q charges.
 These reconstruct the Monopoles, Dipoles and Quadrupoles (both atomic AND molecular).

        Atom    Level:     MDC-m        MDC-d        MDC-q
 ---------------------------------------------------------
     1     C            0.060749     0.034890    -0.126014
     2     C            0.060514     0.034519    -0.128039
     3     C            0.060656     0.034674    -0.127830
     4     C            0.060750     0.034891    -0.126009
     5     C            0.060513     0.034517    -0.128045
     6     C            0.060647     0.034663    -0.127804
     7     H           -0.060482    -0.034195     0.127919
     8     H           -0.060467    -0.034458     0.127685
     9     H           -0.060972    -0.035424     0.126276
    10     H           -0.060482    -0.034196     0.127919
    11     H           -0.060456    -0.034455     0.127667
    12     H           -0.060971    -0.035425     0.126276

 ------------------------------------------------ 
 Average absolute deviations in atomic multipoles
 ------------------------------------------------ 

 Stated here are the average differences between the atomic multipoles
 and the reconstructed atomic multipoles (from the distributed charges).
 If these values are not zero, this means there are not enough degrees of freedom,
 to be able to reconstruct the atomic multipoles. (This usually happens only
 for small and/or highly symmetric molecules). If this is the case, one could add
 dummy atoms as extra point charges (and setting INCDUM in MDC-block to 1).

 Level:                                 MDC-d        MDC-q
 ---------------------------------------------------------
 Charge   (a.u.)                       0.0000       0.0000
 Dipole   (Debye)                      0.0000       0.0000
 Quad.    (a.u.)                       0.2134       0.0000

 --------------------------------------- 
 Represented molecular multipole moments
 --------------------------------------- 

 Given here are the Molecular multipole moments from the atomic charges, and from the Fit Density.
 Note that the atomic charges represent the latter, NOT the ones from the Exact density.

            Q (a.u.)             Dipole moment (Debye)                                          Quadrupole moment (a.u.)
                                 x         y         z              xx        xy        xz        yy        yz        zz
------------------------------------------------------------------------------------------------------------------------
MDC-m         0.0000        0.0001    0.0000   -0.0000         -1.3610    0.0003   -0.0009    2.7587   -0.0001   -1.3977
MDC-d         0.0000       -0.0001    0.0000    0.0000         -0.7541   -0.0003    0.0077    1.5783    0.0001   -0.8242
MDC-q         0.0000       -0.0001    0.0000    0.0000          2.9185   -0.0003    0.0056   -5.7911    0.0001    2.8726
 
Fit.Dens.     0.0000       -0.0001    0.0000    0.0000          2.9185   -0.0003    0.0048   -5.7911    0.0001    2.8726



 =============
 Dipole Moment  ***  (Debye)  ***
 =============
  
 Vector   :        -0.00006021     -0.00000012      0.00003089
 Magnitude:         0.00006767

 This molecular dipole moment is calculated with analytic integration



 =========================================
 Quadrupole Moment (Buckingham convention)  ***  (a.u.)  ***
 =========================================
  
      quad-xx        quad-xy        quad-xz        quad-yy        quad-yz        quad-zz
      2.92988905    -0.00026834     0.00305798    -5.81956426     0.00013768     2.88967521

 This molecular quadrupole moment is calculated with analytic integration
1



 =======================================================
 S F O   P O P U L A T I O N S ,   M O   A N A L Y S I S
 =======================================================
  
 A Mulliken population analysis is performed on (input-)selected MOs. All populations refer to SFOs.
 BAS populations may have been printed directly after the SCF part.


                                       === A ===


 SFO contributions (%) per orbital
 (multiplication by the orbital occupation yields the SFO Gross Populations)

 Orb.:       12     13     14     15     16     17     18     19     20     21     22     23     24     25
 occup:     2.00   2.00   2.00   2.00   2.00   2.00   2.00   2.00   2.00   2.00   0.00   0.00   0.00   0.00
 CF+SFO     ----   ----   ----   ----   ----   ----   ----   ----   ----   ----   ----   ----   ----   ----
 ------
      2:    0.24   4.05   0.00  -0.00   0.02  -0.00  -0.00  -0.06   0.00   0.00  -0.00  -0.00  -0.25   0.00
      3:   -0.08   0.11   0.00  -0.00  -0.19   0.00  -0.00  -0.02  -0.00   0.00   0.00   0.00  -2.68  -0.03
      6:    0.01   0.00  14.43   0.41   0.00  -0.00   9.17   0.01   0.00  -0.00   0.00  -0.00   0.00  -2.00
      7:    0.00   0.00   2.01   0.66  -0.00   0.00   3.06   0.00   0.00  -0.00  -0.00  -0.00  -0.00  -9.27
      9:   -0.00  -0.00  -0.00   0.00  -0.00  17.23  -0.00   0.00   0.00  31.76   0.06  34.44  -0.00   0.00
     10:   -0.00   0.00  -0.00   0.00   0.00  -0.98  -0.00  -0.00   0.00   0.12  -0.01  -3.85   0.00  -0.00
     12:   10.71   2.49   0.01   0.01  17.88   0.00   0.01   5.88   0.00   0.00  -0.00  -0.00   0.73   0.04
     13:    0.23   0.27   0.00  -0.00   1.27   0.00   0.00   1.46  -0.00   0.00   0.00  -0.00  -0.52  -0.36
     17:    0.00   0.00   0.00  -0.00  -0.00   0.00  -0.00  -0.00   0.61   0.00   1.14   0.00  -0.00  -0.00
     21:    0.24   4.02  -0.00   0.02   0.02   0.00  -0.05  -0.02  -0.00   0.00  -0.00  -0.00  -0.24   0.02
     22:   -0.08   0.11  -0.00  -0.14  -0.04   0.00  -0.02  -0.01  -0.00  -0.00   0.00  -0.00  -2.69  -0.34
     25:    7.79   1.98   3.93   8.79   4.20   0.00   6.79  -0.03  -0.00  -0.00  -0.00   0.00   0.52  -0.53
     26:    0.17   0.22   0.54   0.06   1.03  -0.00   2.14  -0.25  -0.00  -0.00  -0.00  -0.00  -0.37 -10.32
     28:    0.00   0.00   0.00  -0.00   0.00  17.21   0.00   0.00  24.04   7.72  24.61   9.89   0.00   0.00
     29:    0.00   0.00   0.00   0.00  -0.00  -0.98   0.00   0.00   0.09   0.03  -2.75  -1.11   0.00   0.00
     31:    2.90   0.71  10.55   4.99   0.11  -0.00  -0.13   8.39   0.00  -0.00   0.00  -0.00   0.20   0.03
     32:    0.07   0.07   1.46   1.07  -0.23  -0.00  -0.30   2.92  -0.00   0.00  -0.00  -0.00  -0.14  -0.02
     40:    0.24   4.02  -0.00   0.02   0.02   0.00  -0.05  -0.02   0.00   0.00  -0.00   0.00  -0.24   0.04
     41:   -0.08   0.11  -0.00  -0.13  -0.05   0.00  -0.02  -0.01   0.00   0.00  -0.00   0.00  -2.70  -0.55
     44:    8.19   2.06   3.39   8.71   4.93   0.00   6.77  -0.13  -0.00   0.00  -0.00   0.00   0.55   0.13
     45:    0.18   0.23   0.47   0.05   1.06  -0.00   2.12  -0.29  -0.00  -0.00  -0.00  -0.00  -0.39 -10.58
     47:   -0.00  -0.00  -0.00   0.00  -0.00  17.22   0.00  -0.00  23.60   8.16  27.07   7.43   0.00   0.00
     48:   -0.00  -0.00   0.00  -0.00   0.00  -0.98  -0.00   0.00   0.09   0.03  -3.02  -0.83  -0.00  -0.00
     50:    2.51   0.61  11.09   4.34   0.12   0.00  -0.04   8.42  -0.00  -0.00   0.00  -0.00   0.17   0.34
     51:    0.06   0.06   1.53   1.05  -0.24  -0.00  -0.25   2.93   0.00  -0.00  -0.00  -0.00  -0.12  -0.34
     59:    0.24   4.05   0.00  -0.00   0.02  -0.00  -0.00  -0.06  -0.00  -0.00  -0.00  -0.00  -0.25   0.00
     60:   -0.08   0.11   0.00  -0.00  -0.19   0.00  -0.00  -0.02  -0.00  -0.00  -0.00   0.00  -2.68  -0.03
     63:    0.01   0.00  14.43   0.41   0.00  -0.00   9.17   0.01   0.00   0.00   0.00  -0.00   0.00  -2.00
     64:    0.00   0.00   2.01   0.66  -0.00   0.00   3.06   0.00  -0.00  -0.00   0.00  -0.00  -0.00  -9.27
     66:    0.00   0.00   0.00  -0.00   0.00  17.23   0.00   0.00   0.00  31.76   0.06  34.44   0.00   0.00
     67:    0.00   0.00   0.00   0.00  -0.00  -0.98   0.00  -0.00   0.00   0.12  -0.01  -3.85   0.00   0.00
     69:   10.71   2.49   0.01   0.01  17.88  -0.00   0.01   5.88  -0.00  -0.00   0.00  -0.00   0.73   0.04
     70:    0.23   0.27   0.00  -0.00   1.27  -0.00   0.00   1.46  -0.00   0.00  -0.00  -0.00  -0.52  -0.36
     74:    0.00  -0.00  -0.00   0.00  -0.00   0.00  -0.00   0.00   0.61   0.00   1.14   0.00   0.00   0.00
     78:    0.24   4.02  -0.00   0.02   0.02  -0.00  -0.05  -0.02   0.00   0.00   0.00  -0.00  -0.24   0.02
     79:   -0.08   0.11  -0.00  -0.14  -0.04  -0.00  -0.02  -0.01  -0.00   0.00   0.00  -0.00  -2.69  -0.34
     82:    7.79   1.97   3.93   8.79   4.20   0.00   6.79  -0.03  -0.00   0.00  -0.00   0.00   0.52  -0.53
     83:    0.17   0.22   0.54   0.06   1.03  -0.00   2.14  -0.25  -0.00  -0.00   0.00   0.00  -0.37 -10.32
     85:   -0.00  -0.00   0.00  -0.00   0.00  17.21  -0.00   0.00  24.04   7.72  24.61   9.89   0.00  -0.00
     86:   -0.00  -0.00  -0.00   0.00  -0.00  -0.98  -0.00   0.00   0.09   0.03  -2.75  -1.11   0.00   0.00
     88:    2.90   0.71  10.55   4.99   0.11   0.00  -0.13   8.39   0.00  -0.00  -0.00  -0.00   0.20   0.03
     89:    0.07   0.07   1.46   1.07  -0.23   0.00  -0.30   2.92   0.00  -0.00   0.00   0.00  -0.13  -0.02
     97:    0.24   4.02  -0.00   0.02   0.02  -0.00  -0.05  -0.02  -0.00  -0.00   0.00   0.00  -0.24   0.04
     98:   -0.08   0.11  -0.00  -0.13  -0.05  -0.00  -0.02  -0.01  -0.00  -0.00  -0.00   0.00  -2.70  -0.55
    101:    8.18   2.06   3.39   8.71   4.93   0.00   6.77  -0.13  -0.00   0.00  -0.00  -0.00   0.55   0.13
    102:    0.18   0.23   0.47   0.05   1.06  -0.00   2.12  -0.29   0.00   0.00  -0.00  -0.00  -0.39 -10.59
    104:    0.00   0.00   0.00   0.00  -0.00  17.22   0.00   0.00  23.60   8.16  27.07   7.43   0.00   0.00
    105:    0.00   0.00   0.00   0.00   0.00  -0.98   0.00   0.00   0.09   0.03  -3.02  -0.83  -0.00  -0.00
    107:    2.51   0.61  11.09   4.34   0.12  -0.00  -0.04   8.42  -0.00   0.00  -0.00  -0.00   0.17   0.34
    108:    0.06   0.06   1.53   1.05  -0.24  -0.00  -0.25   2.93   0.00  -0.00   0.00  -0.00  -0.12  -0.34
    115:    5.55   9.27   0.00   9.99   2.87  -0.00  10.14   3.20   0.00   0.00   0.00   0.00   7.79  12.27
    116:   -0.02   0.16  -0.00   0.12   0.03   0.00  -0.15  -0.05   0.00   0.00   0.00   0.00  11.27  18.23
    121:    5.55   9.24   0.00   9.46   3.42   0.00   9.87   3.48   0.00   0.00  -0.00   0.00   7.80  19.82
    122:   -0.02   0.16  -0.00   0.11   0.04  -0.00  -0.15  -0.05   0.00   0.00  -0.00   0.00  11.28  29.43
    125:    0.00   0.00  -0.00   0.00   0.00   0.25   0.00   0.00   0.62   0.21   1.08   0.30   0.00  -0.00
    127:    5.51   8.95   0.00   0.01  13.14   0.00   0.00  13.37   0.00   0.00   0.00   0.00   7.82   0.89
    128:   -0.02   0.16  -0.00   0.00   0.16  -0.00  -0.00  -0.20   0.00  -0.00   0.00   0.00  11.28   1.32
    131:    0.00  -0.00  -0.00   0.00  -0.00   0.25   0.00   0.00   0.00   0.83   0.00   1.36   0.00  -0.00
    133:    5.55   9.27   0.00   9.99   2.87  -0.00  10.14   3.20   0.00   0.00   0.00  -0.00   7.79  12.27
    134:   -0.02   0.16  -0.00   0.12   0.03   0.00  -0.15  -0.05  -0.00   0.00   0.00   0.00  11.27  18.22
    139:    5.55   9.24   0.00   9.46   3.42  -0.00   9.88   3.48   0.00  -0.00   0.00   0.00   7.81  19.82
    140:   -0.02   0.16  -0.00   0.11   0.04   0.00  -0.15  -0.05   0.00   0.00   0.00   0.00  11.29  29.43
    143:    0.00  -0.00   0.00   0.00   0.00   0.25  -0.00  -0.00   0.62   0.21   1.08   0.30   0.00   0.00
    145:    5.52   8.95   0.00   0.01  13.14  -0.00   0.00  13.37   0.00  -0.00  -0.00   0.00   7.82   0.89
    146:   -0.02   0.16  -0.00   0.00   0.16  -0.00  -0.00  -0.20  -0.00  -0.00  -0.00   0.00  11.28   1.32
    149:    0.00  -0.00   0.00  -0.00   0.00   0.25   0.00   0.00   0.00   0.83   0.00   1.36   0.00  -0.00


 Summation over all MOs, multiplied by occupation: Total SFO Gross Populations in this Irrep
 ===========================================================================================

     2.00    1.07   -0.01   -0.00   -0.00    0.84    0.07   -0.01    0.98   -0.02   -0.00    0.81
     0.03   -0.01    0.02    0.01    0.01    0.02    0.00    2.00    1.07   -0.01   -0.00   -0.00
     0.82    0.04   -0.01    0.98   -0.02   -0.00    0.83    0.06   -0.01    0.02    0.01    0.01
     0.02    0.01    2.00    1.07   -0.01   -0.00   -0.00    0.82    0.04   -0.01    0.98   -0.02
    -0.00    0.83    0.06   -0.01    0.02    0.01    0.01    0.02    0.01    2.00    1.07   -0.01
    -0.00   -0.00    0.84    0.07   -0.01    0.98   -0.02   -0.00    0.81    0.03   -0.01    0.02
     0.01    0.01    0.02    0.00    2.00    1.07   -0.01   -0.00   -0.00    0.82    0.04   -0.01
     0.98   -0.02   -0.00    0.83    0.06   -0.01    0.02    0.01    0.01    0.02    0.01    2.00
     1.07   -0.01   -0.00   -0.00    0.82    0.04   -0.01    0.98   -0.02   -0.00    0.83    0.06
    -0.01    0.02    0.01    0.01    0.02    0.01    1.11   -0.00   -0.00    0.03    0.02    0.02
     1.11   -0.00   -0.00    0.03    0.02    0.02    1.11   -0.00   -0.00    0.02    0.02    0.03
     1.11   -0.00   -0.00    0.03    0.02    0.02    1.11   -0.00   -0.00    0.03    0.02    0.02
     1.11   -0.00   -0.00    0.02    0.02    0.03



 List of all MOs, ordered by energy, with the most significant SFO gross populations
 ===================================================================================

 Each percentage contribution in the table below corresponds to the indicated SFO.
 In general, a SFO may be a linear combination of several Fragment Orbitals on the same,
 or on symmetry-related Fragments. Only the first 'member' of such a combination is
 specified here. A full definition of all SFOs is given in an earlier part of the output.
 The numbering of the SFOs in this table does NOT include the Core Orbitals, and starts
 from one for each symmetry representation, as in the SFO definition list earlier.

       E(eV)  Occ       MO           %     SFO (first member)   E(eV)  Occ   Fragment
 -------------------------------------------------------------------------------------

     -21.395  2.00     7 A         14.60%     2 S             -13.876  2.00     4 C
                                   14.60%     2 S             -13.876  2.00     1 C
                                   14.59%     2 S             -13.876  2.00     2 C
                                   14.59%     2 S             -13.876  2.00     5 C
                                   14.59%     2 S             -13.876  2.00     3 C
                                   14.59%     2 S             -13.876  2.00     6 C
                                    2.37%     1 P:z            -5.403  0.67     4 C
                                    2.37%     1 P:z            -5.403  0.67     1 C
                                    1.83%     1 P:x            -5.403  0.67     6 C
                                    1.82%     1 P:x            -5.403  0.67     3 C
                                    1.74%     1 P:x            -5.403  0.67     5 C
                                    1.74%     1 P:x            -5.403  0.67     2 C
                                    1.24%     1 S              -6.626  1.00     7 H
                                    1.24%     1 S              -6.626  1.00    10 H
                                    1.24%     1 S              -6.626  1.00     8 H
                                    1.24%     1 S              -6.626  1.00    11 H
                                    1.23%     1 S              -6.626  1.00     9 H
                                    1.23%     1 S              -6.626  1.00    12 H
     -18.627  2.00     8 A         18.09%     2 S             -13.876  2.00     5 C
                                   18.09%     2 S             -13.876  2.00     2 C
                                   16.47%     2 S             -13.876  2.00     6 C
                                   16.47%     2 S             -13.876  2.00     3 C
                                    5.74%     1 P:x            -5.403  0.67     4 C
                                    5.74%     1 P:x            -5.403  0.67     1 C
                                    4.44%     1 S              -6.626  1.00    10 H
                                    4.44%     1 S              -6.626  1.00     7 H
                                    4.04%     1 S              -6.626  1.00     8 H
                                    4.04%     1 S              -6.626  1.00    11 H
                                   -1.70%     2 P:x             4.709  0.00     4 C
                                   -1.70%     2 P:x             4.709  0.00     1 C
                                    1.64%     1 P:z            -5.403  0.67     6 C
                                    1.64%     1 P:z            -5.403  0.67     3 C
                                    1.26%     1 P:z            -5.403  0.67     2 C
                                    1.26%     1 P:z            -5.403  0.67     5 C
     -18.615  2.00     9 A         23.00%     2 S             -13.876  2.00     1 C
                                   23.00%     2 S             -13.876  2.00     4 C
                                    6.60%     2 S             -13.876  2.00     3 C
                                    6.60%     2 S             -13.876  2.00     6 C
                                    5.68%     1 S              -6.626  1.00    12 H
                                    5.68%     1 S              -6.626  1.00     9 H
                                    4.98%     2 S             -13.876  2.00     2 C
[...]
 iter.  6 V(1) measure  0.8919097166399E+05
        6        delta  0.6320935060052E+01
 CRIT   1.27189097849047     
 iter.  7 V(1) measure  0.8918332751894E+05
        7        delta  0.7644145047539E+01
 CRIT  0.154007434891072     
 iter.  8 V(1) measure  0.8918238569940E+05
        8        delta  0.9418195389735E+00
 CRIT  5.110006781860398E-002
 iter.  9 V(1) measure  0.8918213472439E+05
        9        delta  0.2509750098980E+00
 CRIT  4.843315226236267E-002
 iter. 10 V(1) measure  0.8918193625526E+05
       10        delta  0.1984691312828E+00
 CRIT  7.813437825610781E-003
 iter. 11 V(1) measure  0.8918194365368E+05
       11        delta  0.7398421788821E-02
 *** convergence reached

    RRIJmat_z_z         
    using first order VWN potential
 
    NOTE: We will NOT use the GGA kernel (input option ALDA was set)
 
 CRIT   1.00000000000000     
 iter.  1 V(1) measure  0.1300601743577E+04
 *** convergence criterion : .1300602E-02
 CRIT   146.185889665110     
 iter.  2 V(1) measure  0.1072279594148E+04
        2        delta  0.2283221494292E+03
 CRIT   55.1263042613557     
 iter.  3 V(1) measure  0.1107869526024E+04
        3        delta  0.3558993187565E+02
 CRIT   15.3207845007415     
 iter.  4 V(1) measure  0.1113422527260E+04
        4        delta  0.5553001236556E+01
 CRIT   3.50090076780692     
 iter.  5 V(1) measure  0.1114322739246E+04
        5        delta  0.9002119856098E+00
 CRIT   1.49378685904089     
 iter.  6 V(1) measure  0.1114423130808E+04
        6        delta  0.1003915616232E+00
 CRIT  0.198337984753217     
 iter.  7 V(1) measure  0.1114421265926E+04
        7        delta  0.1864882004838E-02
 CRIT  4.163923928645540E-002
 iter.  8 V(1) measure  0.1114419590582E+04
        8        delta  0.1675343677789E-02
 CRIT  5.582132373312557E-002
 iter.  9 V(1) measure  0.1114417316115E+04
        9        delta  0.2274466690778E-02
 CRIT  4.417998099774137E-003
 iter. 10 V(1) measure  0.1114417433377E+04
       10        delta  0.1172617817247E-03
 *** convergence reached
 ------------------------------------------
 Convergence acceleration: T
 QUADRUPOLE-QUADRUPOLE POLARIZABILITY     
 Frequency  =  0.1322975682     Hartrees
 Wavelength =   344.4005294     nm
 Wavenumber =   29035.96001     cm^{-1}
 Energy     =   3.600000000     eV
 ------------------------------------------
 QUADRUPOLE-QUADRUPOLE Polarizability tensor:
 
 xx xx     4188.27978981388     
 xx xy    3.221935998029445E-002
 xx xz   -0.315397191204798     
 xx yy    -4992.46481045257     
 xx yz    1.800124063477693E-002
 xx zz     804.185020638722     
 xy xx    0.134774668945526     
 xy xy     12597.6950733863     
 xy xz   -0.109161516204536     
 xy yy   -4.299455389646416E-002
 xy yz   -0.508071565205809     
 xy zz   -9.178011508808610E-002
 xz xx   -0.315879616738042     
 xz xy   -0.109353363518645     
 xz xz     1694.97099701952     
 xz yy    0.126574034329557     
 xz yz    1.947195066193595E-002
 xz zz    0.189305582419146     
 yy xx    -4992.60313083086     
 yy xy    0.308531688510681     
 yy xz    0.111140813295802     
 yy yy     9983.78138247520     
 yy yz   -0.156371496490333     
 yy zz    -4991.17825164433     
 yz xx   -5.087994429538467E-002
 yz xy   -0.554862769584168     
 yz xz    1.951138983444982E-002
 yz yy    2.248718366072566E-002
 yz yz     12584.6900247781     
 yz zz    2.839276066472746E-002
 zz xx     804.143774908396     
 zz xy   -9.117399416519646E-002
 zz xz    0.195855115898328     
 zz yy    -4991.23084613658     
 zz yz    2.629627042832894E-002
 zz zz     4187.08707122816     
 
 Imaginary QUADRUPOLE-QUADRUPOLE Polarizability tensor:
 
 xx xx     18.6167012682758     
 xx xy   -5.414517040992681E-002
 xx xz   -2.299609120550748E-003
 xx yy    -21.5114791350497     
 xx yz    3.619012481762436E-002
 xx zz     2.89477786677410     
 xy xx    1.199780815409546E-003
 xy xy     125.072076465056     
 xy xz   -1.165319239441700E-003
 xy yy   -6.608643650529937E-004
 xy yz   -5.529833029844245E-004
 xy zz   -5.389164499323357E-004
 xz xx   -2.146470398601582E-003
 xz xy   -1.290894207142795E-003
 xz xz     7.93722837205601     
 xz yy    1.176638543928050E-003
 xz yz    1.380417569482496E-004
 xz zz    9.698318547540338E-004
 yy xx    -21.6255609020648     
 yy xy    8.369033787205235E-002
 yy xz    5.661399599324684E-004
 yy yy     43.2329265944367     
 yy yz   -4.248609814735009E-002
 yy zz    -21.6073656923722     
 yz xx   -8.119012479451404E-004
 yz xy   -6.534160394229637E-003
 yz xz    1.468768706169778E-004
 yz yy    3.613638884260272E-004
 yz yz     124.876641074238     
 yz zz    4.505373595413064E-004
 zz xx     2.85661484642980     
 zz xy   -1.970251976151445E-003
 zz xz    1.057925429105895E-003
 zz yy    -21.5603028773870     
 zz yz    4.367902458807096E-003
 zz zz     18.7036880309570     



 =======================================================================
 Electrostatic potential at the Nuclei due to electrons and other nuclei
 =======================================================================
  
         Atom                  Potential
         ----                  ---------
     1)   C                  14.76894903
     2)   C                  14.76876221
     3)   C                  14.76871910
     4)   C                  14.76895003
     5)   C                  14.76876089
     6)   C                  14.76870675
     7)   H                   1.10096016
     8)   H                   1.10103843
     9)   H                   1.10183730
    10)   H                   1.10096008
    11)   H                   1.10102703
    12)   H                   1.10183756
 
 
 ========================
 No memory problems found
 ========================
 
 Maximum number of active allocate calls:        1279
 
 *******************************************************************************

                             A D F   E X I T
 NORMAL TERMINATION



 =================
 Timing Statistics
 =================
  
 Total Used :                     CPU=       39.11      System=        0.58     Elapsed=       40.72

 Calls  Section                     ( Mean, Percentage )
 ---------------------------------------------------------------------------------------------------
     3  ><      ................      0.00    0.01             0.00    0.00             0.00    0.01
     1  INIT    ................      0.58    1.48             0.00    0.00             0.60    1.48
     1  GEOMET  ................      0.03    0.08             0.01    2.23             0.05    0.11
     1  FRAGM   ................      0.01    0.04             0.02    3.40             0.04    0.09
     1  INPUTA  ................      0.00    0.01             0.00    0.03             0.00    0.01
     1  ATDEN   ................      0.00    0.00             0.00    0.69             0.00    0.01
     1  MAINSY  ................      0.03    0.08             0.00    0.00             0.03    0.08
     1  SYMFIT  ................      0.01    0.02             0.00    0.00             0.01    0.02
     1  CORORT  ................      0.00    0.00             0.00    0.00             0.00    0.00
     1  SYMORB  ................      0.00    0.01             0.00    0.00             0.00    0.01
     1  CLSMAT  ................      0.01    0.03             0.00    0.00             0.01    0.03
     1  ORTHON  ................      0.01    0.04             0.00    0.27             0.02    0.04
     1  GENPT   ................      0.12    0.30             0.01    1.71             0.14    0.34
     1  PTBAS   ................      0.09    0.23             0.00    0.67             0.10    0.24
    13  FOCKY   ................      0.30    9.81             0.00    8.41             0.30    9.72
    13  FOCKTR  ................      0.00    0.10             0.00    0.55             0.00    0.10
    13  SDIIS   ................      0.00    0.15             0.00    1.46             0.01    0.17
     1  COREPS  ................      0.22    0.57             0.00    0.00             0.23    0.55
     1  TOTEN   ................      1.05    2.67             0.02    2.77             1.07    2.62
     1  POPAN   ................      0.01    0.02             0.00    0.00             0.01    0.02
     1  DEBYE   ................      0.01    0.03             0.00    0.67             0.02    0.04
     1  INPUTE  ................      0.00    0.00             0.00    0.00             0.00    0.00
     1  SYMORE  ................      0.00    0.00             0.00    0.01             0.00    0.00
     1  METS    ................      0.00    0.01             0.00    0.00             0.00    0.01
     1  CETS    ................      0.01    0.03             0.00    0.00             0.01    0.03
     1  ELNRGY  ................      0.01    0.03             0.00    0.00             0.01    0.03
     1  POPUL   ................      0.02    0.05             0.00    0.00             0.02    0.05
     1  AORESPONSE .............     32.91   84.14             0.45   76.47            34.24   84.10
     1  EXIT PROCEDURE .........      0.03    0.07             0.00    0.67             0.03    0.08


 Currently Open Files (EXIT00)
 ====================

 Unit    Access Format  Status   Type       Ident (file)
 -------------------------------------------------------
   3      SEQ    FORM   TRANSP  NORMAL      LOGFILE
                                          ( logfile )

 ***************************************************************************************************
 (LOGFILE)
 <Sep29-2020> <15:26:41>  ADF 2019  RunTime: Sep29-2020 15:26:41  Nodes: 1  Procs: 1
 <Sep29-2020> <15:26:41>  Hydrogen (TZP)
 <Sep29-2020> <15:26:41>  RunType   : CREATE
 <Sep29-2020> <15:26:41>  Net Charge: 0 (Nuclei minus Electrons)
 <Sep29-2020> <15:26:41>  Symmetry  : ATOM
  Coordinates
    Atom         X           Y           Z   (Angstrom)
    1.H         0.000000    0.000000    0.000000
 <Sep29-2020> <15:26:41>  >>>> CORORT
 <Sep29-2020> <15:26:41>  >>>> CLSMAT
 <Sep29-2020> <15:26:41>  >>>> ORTHON
 <Sep29-2020> <15:26:41>  >>>> GENPT
 <Sep29-2020> <15:26:41>  Block Length=  64
 <Sep29-2020> <15:26:41>  >>>> PTBAS
 <Sep29-2020> <15:26:41>  >>>> CYCLE
 <Sep29-2020> <15:26:41>              |Error|         MaxErr       Wt(A-DIIS)
 <Sep29-2020> <15:26:41>      1      0.00000000      0.00000000
 <Sep29-2020> <15:26:41>      2      0.03052909      0.02968459
 <Sep29-2020> <15:26:41>      3      0.00718138      0.00670742    100.0
 <Sep29-2020> <15:26:41>      4      0.00117303      0.00114116      0.1
 <Sep29-2020> <15:26:41>      5      0.00002783      0.00002380      0.0
 <Sep29-2020> <15:26:42>      6      0.00000153      0.00000130      0.0
 <Sep29-2020> <15:26:42>      7      0.00000000      0.00000000      0.0
 <Sep29-2020> <15:26:42>  SCF converged
 <Sep29-2020> <15:26:42>      8      0.00000000      0.00000000      0.0
 <Sep29-2020> <15:26:42>  >>>> POPAN
 <Sep29-2020> <15:26:42>  >>>> DEBYE
 <Sep29-2020> <15:26:42>  NORMAL TERMINATION
 <Sep29-2020> <15:26:42>  END
 <Sep29-2020> <15:26:42>  ADF 2019  RunTime: Sep29-2020 15:26:42  Nodes: 1  Procs: 1
 <Sep29-2020> <15:26:42>  Carbon (TZP)
 <Sep29-2020> <15:26:42>  RunType   : CREATE
 <Sep29-2020> <15:26:42>  Net Charge: 0 (Nuclei minus Electrons)
 <Sep29-2020> <15:26:42>  Symmetry  : ATOM
  Coordinates
    Atom         X           Y           Z   (Angstrom)
    1.C         0.000000    0.000000    0.000000
 <Sep29-2020> <15:26:42>  >>>> CORORT
 <Sep29-2020> <15:26:42>  >>>> CLSMAT
 <Sep29-2020> <15:26:42>  >>>> ORTHON
 <Sep29-2020> <15:26:42>  >>>> GENPT
 <Sep29-2020> <15:26:42>  Block Length=  72
 <Sep29-2020> <15:26:42>  >>>> PTBAS
 <Sep29-2020> <15:26:42>  >>>> CYCLE
 <Sep29-2020> <15:26:42>              |Error|         MaxErr       Wt(A-DIIS)
 <Sep29-2020> <15:26:42>      1      0.00000000      0.00000000
 <Sep29-2020> <15:26:42>      2      4.48324754      3.31969244    100.0
 <Sep29-2020> <15:26:42>      3      1.61537707      1.30410194    100.0
 <Sep29-2020> <15:26:42>      4      0.72706284      0.59053131    100.0
 <Sep29-2020> <15:26:42>      5      0.40898688      0.33263800    100.0
 <Sep29-2020> <15:26:42>      6      0.13548919      0.10594416    100.0
 <Sep29-2020> <15:26:42>      7      0.11406432      0.09088019     90.8
 <Sep29-2020> <15:26:42>      8      0.01170325      0.00926551      8.3
 <Sep29-2020> <15:26:42>      9      0.00078015      0.00061791      0.0
 <Sep29-2020> <15:26:42>     10      0.00000178      0.00000107      0.0
 <Sep29-2020> <15:26:42>     11      0.00000024      0.00000019      0.0
 <Sep29-2020> <15:26:43>     12      0.00000000      0.00000000      0.0
 <Sep29-2020> <15:26:43>  SCF converged
 <Sep29-2020> <15:26:43>     13      0.00000000      0.00000000      0.0
 <Sep29-2020> <15:26:43>  >>>> POPAN
 <Sep29-2020> <15:26:43>  >>>> DEBYE
 <Sep29-2020> <15:26:43>  NORMAL TERMINATION
 <Sep29-2020> <15:26:43>  END
 <Sep29-2020> <15:26:43>  ADF 2019  RunTime: Sep29-2020 15:26:43  Nodes: 1  Procs: 6
 <Sep29-2020> <15:26:44>  None
 <Sep29-2020> <15:26:44>  RunType   : SINGLE POINT
 <Sep29-2020> <15:26:44>  Net Charge: 0 (Nuclei minus Electrons)
 <Sep29-2020> <15:26:44>  Symmetry  : NOSYM
 <Sep29-2020> <15:26:44>  >>>> FRAGM
  Coordinates
    Atom         X           Y           Z   (Angstrom)
    1.C         0.029674    4.000000   -1.396705
    2.C        -1.198159    4.000000   -0.725168
    3.C        -1.227891    4.000000    0.673557
    4.C        -0.029674    4.000000    1.396705
    5.C         1.198159    4.000000    0.725168
    6.C         1.227891    4.000000   -0.673557
    7.H        -2.130338    4.000000   -1.292887
    8.H        -2.183449    4.000000    1.201182
    9.H        -0.052942    4.000000    2.488205
   10.H         2.130338    4.000000    1.292887
   11.H         2.183549    4.000000   -1.201182
   12.H         0.052842    4.000000   -2.488205
 <Sep29-2020> <15:26:44>  >>>> CORORT
 <Sep29-2020> <15:26:44>  >>>> CLSMAT
 <Sep29-2020> <15:26:44>  >>>> ORTHON
 <Sep29-2020> <15:26:44>  >>>> GENPT
 <Sep29-2020> <15:26:44>  Block Length= 128
 <Sep29-2020> <15:26:44>  >>>> PTBAS
 <Sep29-2020> <15:26:44>  >>>> CYCLE
 <Sep29-2020> <15:26:44>              |Error|         MaxErr       Wt(A-DIIS)
 <Sep29-2020> <15:26:44>      1      5.99091397      0.98022325
 <Sep29-2020> <15:26:45>      2      0.89232918      0.18720013    100.0
 <Sep29-2020> <15:26:45>      3      0.52145445      0.10259856    100.0
 <Sep29-2020> <15:26:45>      4      0.74325703      0.17281442    100.0
 <Sep29-2020> <15:26:46>      5      0.07622670      0.01066018      9.8
 <Sep29-2020> <15:26:46>      6      0.01070084      0.00171220      0.7
 <Sep29-2020> <15:26:46>      7      0.00138638      0.00032316      0.0
 <Sep29-2020> <15:26:47>      8      0.00100692      0.00022877      0.0
 <Sep29-2020> <15:26:47>      9      0.00006236      0.00001345      0.0
 <Sep29-2020> <15:26:47>     10      0.00000784      0.00000195      0.0
 <Sep29-2020> <15:26:47>     11      0.00000801      0.00000203      0.0
 <Sep29-2020> <15:26:48>     12      0.00000011      0.00000002      0.0
 <Sep29-2020> <15:26:48>  SCF converged
 <Sep29-2020> <15:26:48>     13      0.00000008      0.00000002      0.0
 <Sep29-2020> <15:26:48>  >>>> TOTEN
 <Sep29-2020> <15:26:49>  >>>> POPAN
 <Sep29-2020> <15:26:49>  >>>> DEBYE
 <Sep29-2020> <15:26:49>  >>>> AMETS
 <Sep29-2020> <15:26:49>  >>>> POPUL
 <Sep29-2020> <15:26:50>     1 V(1)  0.1848340E+04
 <Sep29-2020> <15:26:50>     2 V(1)  0.1578084E+04
 <Sep29-2020> <15:26:51>     3 V(1)  0.1560694E+04
 <Sep29-2020> <15:26:51>     4 V(1)  0.1567266E+04
 <Sep29-2020> <15:26:51>     5 V(1)  0.1569221E+04
 <Sep29-2020> <15:26:52>     6 V(1)  0.1569088E+04
 <Sep29-2020> <15:26:52>     7 V(1)  0.1569045E+04
 <Sep29-2020> <15:26:53>     8 V(1)  0.1569040E+04
 <Sep29-2020> <15:26:53>     9 V(1)  0.1569035E+04
 <Sep29-2020> <15:26:53>    10 V(1)  0.1569035E+04
 <Sep29-2020> <15:26:53>   convergence reached
 <Sep29-2020> <15:26:54>     1 V(1)  0.2536230E+02
 <Sep29-2020> <15:26:54>     2 V(1)  0.2328900E+02
 <Sep29-2020> <15:26:54>     3 V(1)  0.2328366E+02
 <Sep29-2020> <15:26:55>     4 V(1)  0.2328291E+02
 <Sep29-2020> <15:26:55>     5 V(1)  0.2328279E+02
 <Sep29-2020> <15:26:56>     6 V(1)  0.2328282E+02
 <Sep29-2020> <15:26:56>   convergence reached
 <Sep29-2020> <15:26:56>     1 V(1)  0.1837704E+04
 <Sep29-2020> <15:26:57>     2 V(1)  0.1568610E+04
 <Sep29-2020> <15:26:57>     3 V(1)  0.1551434E+04
 <Sep29-2020> <15:26:57>     4 V(1)  0.1557956E+04
 <Sep29-2020> <15:26:58>     5 V(1)  0.1559743E+04
 <Sep29-2020> <15:26:58>     6 V(1)  0.1559872E+04
 <Sep29-2020> <15:26:59>     7 V(1)  0.1559754E+04
 <Sep29-2020> <15:26:59>     8 V(1)  0.1559737E+04
 <Sep29-2020> <15:26:59>     9 V(1)  0.1559734E+04
 <Sep29-2020> <15:27:00>    10 V(1)  0.1559731E+04
 <Sep29-2020> <15:27:00>    11 V(1)  0.1559731E+04
 <Sep29-2020> <15:27:00>   convergence reached
 <Sep29-2020> <15:27:01>     1 V(1)  0.1303344E+04
 <Sep29-2020> <15:27:01>     2 V(1)  0.1074130E+04
 <Sep29-2020> <15:27:01>     3 V(1)  0.1109759E+04
 <Sep29-2020> <15:27:02>     4 V(1)  0.1115334E+04
 <Sep29-2020> <15:27:02>     5 V(1)  0.1116225E+04
 <Sep29-2020> <15:27:03>     6 V(1)  0.1116324E+04
 <Sep29-2020> <15:27:03>     7 V(1)  0.1116325E+04
 <Sep29-2020> <15:27:03>   convergence reached
 <Sep29-2020> <15:27:04>     1 V(1)  0.1060332E+06
 <Sep29-2020> <15:27:04>     2 V(1)  0.8987977E+05
 <Sep29-2020> <15:27:05>     3 V(1)  0.8897938E+05
 <Sep29-2020> <15:27:05>     4 V(1)  0.8960683E+05
 <Sep29-2020> <15:27:06>     5 V(1)  0.8972572E+05
 <Sep29-2020> <15:27:06>     6 V(1)  0.8971679E+05
 <Sep29-2020> <15:27:06>     7 V(1)  0.8971445E+05
 <Sep29-2020> <15:27:07>     8 V(1)  0.8971403E+05
 <Sep29-2020> <15:27:07>     9 V(1)  0.8971368E+05
 <Sep29-2020> <15:27:08>    10 V(1)  0.8971366E+05
 <Sep29-2020> <15:27:08>   convergence reached
 <Sep29-2020> <15:27:08>     1 V(1)  0.6156951E+03
 <Sep29-2020> <15:27:09>     2 V(1)  0.4706712E+03
 <Sep29-2020> <15:27:09>     3 V(1)  0.4847261E+03
 <Sep29-2020> <15:27:09>     4 V(1)  0.4859037E+03
 <Sep29-2020> <15:27:10>     5 V(1)  0.4864283E+03
 <Sep29-2020> <15:27:10>     6 V(1)  0.4864360E+03
 <Sep29-2020> <15:27:11>     7 V(1)  0.4864379E+03
 <Sep29-2020> <15:27:11>     8 V(1)  0.4864368E+03
 <Sep29-2020> <15:27:11>     9 V(1)  0.4864358E+03
 <Sep29-2020> <15:27:12>    10 V(1)  0.4864355E+03
 <Sep29-2020> <15:27:12>   convergence reached
 <Sep29-2020> <15:27:12>     1 V(1)  0.2748734E+04
 <Sep29-2020> <15:27:13>     2 V(1)  0.2507391E+04
 <Sep29-2020> <15:27:13>     3 V(1)  0.2520129E+04
 <Sep29-2020> <15:27:13>     4 V(1)  0.2520553E+04
 <Sep29-2020> <15:27:14>     5 V(1)  0.2520554E+04
 <Sep29-2020> <15:27:14>   convergence reached
 <Sep29-2020> <15:27:14>     1 V(1)  0.1054250E+06
 <Sep29-2020> <15:27:15>     2 V(1)  0.8933925E+05
 <Sep29-2020> <15:27:15>     3 V(1)  0.8845084E+05
 <Sep29-2020> <15:27:16>     4 V(1)  0.8907481E+05
 <Sep29-2020> <15:27:16>     5 V(1)  0.8918465E+05
 <Sep29-2020> <15:27:17>     6 V(1)  0.8919097E+05
 <Sep29-2020> <15:27:17>     7 V(1)  0.8918333E+05
 <Sep29-2020> <15:27:18>     8 V(1)  0.8918239E+05
 <Sep29-2020> <15:27:18>     9 V(1)  0.8918213E+05
 <Sep29-2020> <15:27:19>    10 V(1)  0.8918194E+05
 <Sep29-2020> <15:27:19>    11 V(1)  0.8918194E+05
 <Sep29-2020> <15:27:19>   convergence reached
 <Sep29-2020> <15:27:20>     1 V(1)  0.1300602E+04
 <Sep29-2020> <15:27:20>     2 V(1)  0.1072280E+04
 <Sep29-2020> <15:27:20>     3 V(1)  0.1107870E+04
 <Sep29-2020> <15:27:21>     4 V(1)  0.1113423E+04
 <Sep29-2020> <15:27:21>     5 V(1)  0.1114323E+04
 <Sep29-2020> <15:27:22>     6 V(1)  0.1114423E+04
 <Sep29-2020> <15:27:22>     7 V(1)  0.1114421E+04
 <Sep29-2020> <15:27:23>     8 V(1)  0.1114420E+04
 <Sep29-2020> <15:27:23>     9 V(1)  0.1114417E+04
 <Sep29-2020> <15:27:24>    10 V(1)  0.1114417E+04
 <Sep29-2020> <15:27:24>   convergence reached
 <Sep29-2020> <15:27:24>  NORMAL TERMINATION
 <Sep29-2020> <15:27:24>  END
