

 Parallel Execution: Process Information
 ==============================================================================
 Rank   Node Name                              NodeID   MyNodeRank  NodeMaster
    0   magnesium.science.psu.edu                 0          0          0
    1   magnesium.science.psu.edu                 0          1         -1
    2   magnesium.science.psu.edu                 0          2         -1
    3   magnesium.science.psu.edu                 0          3         -1
    4   magnesium.science.psu.edu                 0          4         -1
    5   magnesium.science.psu.edu                 0          5         -1
 ==============================================================================


May use up to 7495MB of RAM as shared memory on node 0
 
TITLE None

ATOMS
1  C     0.02970000    3.99996825   -1.39860000
2  C    -1.19700000    3.99959249   -0.72530000
3  C    -1.22670000    3.99962425    0.67370000
4  C    -0.02970000    4.00003175    1.39860000
5  C     1.19700000    4.00040751    0.72530000
6  C     1.22670000    4.00037575   -0.67370000
7  H    -2.13010000    4.00271495   -1.29150000
8  H    -2.18310000    4.00250326    1.19980000
9  H    -0.05300000    3.99979360    2.49010000
10 H     2.13010000    3.99728505    1.29150000
11 H     2.18320000    3.99749145   -1.19980000
12 H     0.05290000    4.00020640   -2.49010000
END

XC
 gga BP86
end

symmetry nosym

aoresponse
 alda
 frequency 1 3.6 eV
 lifetime 0.0037
 El_Dipole_El_Dipole
 El_Dipole_El_Quadrupole
 El_Quadrupole_El_Quadrupole
 Traceless
end

Fragments
H t21.H
C t21.C
End

 *******************************************************************************
 *                                                                             *
 *  -------------------------------------                                      *
 *   Amsterdam Density Functional  (ADF)         2019                          *
 *  -------------------------------------                                      *
 *                                               r75281 2019-06-03             *
 *                                                                             *
 *                                                                             *
 *                              =================                              *
 *                              |               |                              *
 *                              |     A D F     |                              *
 *                              |               |                              *
 *                              =================                              *
 *                                                                             *
 *                                                                             *
 *   Online information and documentation:  https://www.scm.com/support/       *
 *   E-mail:  support@scm.com   info@scm.com                                   *
 *                                                                             *
 *   Scientific publications using ADF results must be properly referenced     *
 *   See the User Manuals (or the web site) for recommended citations          *
 *   The terms and conditions of the End User License Agreement apply to       *
 *   the use of ADF, https://www.scm.com/license-terms/                        *
 *                                                                             *
 **********************  x86_64_linux_intel / intelmpi  ************************
 
 Licensed to: Prof. Lasse Jensen / Penn State University / University Park / PA  / USA
 SCM User ID: u8493
  
 ADF 2019  RunTime: Sep29-2020 15:33:41  Nodes: 1  Procs: 6

 Temporary files are created in /scratch/kid_0.2107062825


Communication costs MPI_COMM_WORLD:      0.563 usec per message,   0.0070 usec per 8-byte item
Communication costs for intra-node:      0.528 usec per message,   0.0069 usec per 8-byte item

 None



 ===========================
 A T T A C H E D   F I L E S
 ===========================
  



 ===============================
 M O D E L   P A R A M E T E R S
 ===============================
  
 DENSITY FUNCTIONAL POTENTIAL (scf)
    LDA:                               VWN                                      
    Gradient Corrections:              Becke88 Perdew86                        == Not Default ==

 SPIN  (restricted / unrestr.)
    Molecule:                          Restricted                               
    Fragments:                         Restricted                               

 OTHER ASPECTS
    Relativistic Corrections:          ---                                      

    Nuclear Charge Density Model:      Point Charge Nuclei                      
    Core Treatment:                    Frozen Orbital(s)                        

    Hyperfine or Zeeman Interaction:   ---                                      


 Fragment File(s)
 ----------------
 C:
         file : t21.C
         jobid: ADF 2019  RunTime: Sep29-2020 15:33:40  Nodes: 1  Procs: 1
         title: Carbon (TZP)
 H:
         file : t21.H
         jobid: ADF 2019  RunTime: Sep29-2020 15:33:39  Nodes: 1  Procs: 1
         title: Hydrogen (TZP)



                                        ************************************
                                        *  R U N   T Y P E : SINGLE POINT  *
                                        ************************************
  



 ===============
 G E O M E T R Y  ***  3D  Molecule  ***
 ===============
  

 ATOMS
 =====                            X Y Z                    CHARGE
                                (Angstrom)             Nucl     +Core       At.Mass
                       --------------------------    ----------------       -------
    1  C               0.0297    4.0000   -1.3986      6.00      6.00       12.0000
    2  C              -1.1970    3.9996   -0.7253      6.00      6.00       12.0000
    3  C              -1.2267    3.9996    0.6737      6.00      6.00       12.0000
    4  C              -0.0297    4.0000    1.3986      6.00      6.00       12.0000
    5  C               1.1970    4.0004    0.7253      6.00      6.00       12.0000
    6  C               1.2267    4.0004   -0.6737      6.00      6.00       12.0000
    7  H              -2.1301    4.0027   -1.2915      1.00      1.00        1.0078
    8  H              -2.1831    4.0025    1.1998      1.00      1.00        1.0078
    9  H              -0.0530    3.9998    2.4901      1.00      1.00        1.0078
   10  H               2.1301    3.9973    1.2915      1.00      1.00        1.0078
   11  H               2.1832    3.9975   -1.1998      1.00      1.00        1.0078
   12  H               0.0529    4.0002   -2.4901      1.00      1.00        1.0078


 FRAGMENTS
 =========                                     Atoms in this Fragment     Cart. coord.s (Angstrom)
                                               -------------------------------------------------------
    1  C                                                 1  C            0.0297    4.0000   -1.3986
    2  C                                                 2  C           -1.1970    3.9996   -0.7253
    3  C                                                 3  C           -1.2267    3.9996    0.6737
    4  C                                                 4  C           -0.0297    4.0000    1.3986
    5  C                                                 5  C            1.1970    4.0004    0.7253
    6  C                                                 6  C            1.2267    4.0004   -0.6737
    7  H                                                 7  H           -2.1301    4.0027   -1.2915
    8  H                                                 8  H           -2.1831    4.0025    1.1998
    9  H                                                 9  H           -0.0530    3.9998    2.4901
   10  H                                                10  H            2.1301    3.9973    1.2915
   11  H                                                11  H            2.1832    3.9975   -1.1998
   12  H                                                12  H            0.0529    4.0002   -2.4901


 Interatomic Distance Matrix (Angstrom)
 --------------------------------------

   1)     0.000
   2)     1.399   0.000
   3)     2.423   1.399   0.000
   4)     2.798   2.424   1.399   0.000
   5)     2.424   2.799   2.424   1.399   0.000
   6)     1.399   2.424   2.799   2.423   1.399   0.000
   7)     2.162   1.091   2.163   3.413   3.891   3.413   0.000
   8)     3.413   2.163   1.092   2.163   3.413   3.891   2.492   0.000
   9)     3.890   3.413   2.163   1.092   2.163   3.413   4.314   2.490   0.000
  10)     3.413   3.891   3.413   2.162   1.091   2.163   4.982   4.314   2.490   0.000
  11)     2.163   3.413   3.891   3.413   2.163   1.092   4.314   4.982   4.315   2.492
          0.000
  12)     1.092   2.163   3.413   3.890   3.413   2.163   2.490   4.315   4.981   4.315
          2.491   0.000

 Min. Distance =    1.0915
 Max. Distance =    4.9822



 =====================================
 S Y M M E T R Y ,   E L E C T R O N S
 =====================================
  
 Symmetry: NOSYM

 Irreducible Representations, including subspecies
 -------------------------------------------------
 A


 Configuration of Valence Electrons
 ==================================
 ( determined in the SCF procedure )

 Total:   42

 Net Charge: 0 (Nuclei minus Electrons)

 Aufbau principle for MO occupations will be applied through SCF cycle no.     150
 Thereafter, the program will assign electrons to MOs that are spatially
 similar to the occupied MOs in a "reference" cycle ("KeepOrbitals").
 The reference cycle is always the PREVIOUS cycle: it will evolve with
 the SCF procedure.
1
 ***************************************************************************************************



                                      ****************************************
                                      *  B U I L D : (Fragments, Functions)  *
                                      ****************************************
  



 =======
 S F O s  ***  (Symmetrized Fragment Orbitals)  ***
 =======
  
 SFOs are linear combinations of (valence) Fragment Orbitals (FOs), such that the SFOs transform as the
 irreducible representations of the (molecular) symmetry group. Each SFO is therefore characterized by
 an irrep of the molecule and by a few (or only one) generating FOs.
 The SFOs constitute a symmetry-adapted basis for the Fock matrix. The MO eigenvector coefficients in
 this basis provide a direct interpretation of the MOs in terms of Frontier Orbital Theory.

 The SFOs are combined with auxiliary Core Functions (CFs) to ensure orthogonalization on the (frozen)
 Core Orbitals (COs). The Core-orthogonalized SFOs (CSFOs) constitute the true Fock basis.

 The FOs, and hence also the (C)SFOs are combinations of the elementary basis functions (BAS). The basis
 functions that participate in the description of the SFOs depend on the irrep. The indices of the
 involved functions are printed below for each irrep.
 (The complete list of primitive basis functions is printed in another section)

 Total nr. of (C)SFOs (summation over all irreps) :   150

 NOTE: a (C)SFO that is defined as a combination of more than one FO is usually NOT normalized.



                                       === A ===
 Nr. of SFOs :  150
 Cartesian basis functions that participate in this irrep (total number =   156) :
      1     2     3     4     5     6     9    12     7    10
     13     8    11    14    15    16    17    18    19    20
     21    22    23    24    25    26    29    32    27    30
     33    28    31    34    35    36    37    38    39    40
     41    42    43    44    45    46    49    52    47    50
     53    48    51    54    55    56    57    58    59    60
     61    62    63    64    65    66    69    72    67    70
     73    68    71    74    75    76    77    78    79    80
     81    82    83    84    85    86    89    92    87    90
     93    88    91    94    95    96    97    98    99   100
    101   102   103   104   105   106   109   112   107   110
    113   108   111   114   115   116   117   118   119   120
    121   122   123   124   125   126   127   128   129   130
    131   132   133   134   135   136   137   138   139   140
    141   142   143   144   145   146   147   148   149   150
    151   152   153   154   155   156

    SFO  (index         Fragment          Generating    Expansion in Fragment Orbitals
  indx  incl.CFs)   Occup   Orb.Energy   FragmentType  Coeff.   Orbital     on Fragment
 --------------------------------------------------------------------------------------
     1       1      2.000     -10.058 au  C             1.00      1 S               1
                        (    -273.681 eV)
     2       2      2.000      -0.510 au  C             1.00      2 S               1
                        (     -13.876 eV)
     3       3       --         0.371 au  C             1.00      3 S               1
                        (      10.091 eV)
     4       4       --         5.428 au  C             1.00      4 S               1
                        (     147.707 eV)
     5       5       --        50.181 au  C             1.00      5 S               1
                        (    1365.486 eV)
     6       6      0.667      -0.199 au  C             1.00      1 P:x             1
                        (      -5.403 eV)
     7       7       --         0.173 au  C             1.00      2 P:x             1
                        (       4.709 eV)
     8       8       --         2.026 au  C             1.00      3 P:x             1
                        (      55.143 eV)
     9       9      0.667      -0.199 au  C             1.00      1 P:y             1
                        (      -5.403 eV)
    10      10       --         0.173 au  C             1.00      2 P:y             1
                        (       4.709 eV)
    11      11       --         2.026 au  C             1.00      3 P:y             1
                        (      55.143 eV)
    12      12      0.667      -0.199 au  C             1.00      1 P:z             1
                        (      -5.403 eV)
    13      13       --         0.173 au  C             1.00      2 P:z             1
                        (       4.709 eV)
    14      14       --         2.026 au  C             1.00      3 P:z             1
                        (      55.143 eV)
    15      15       --         1.232 au  C             1.00      1 D:z2            1
                        (      33.528 eV)
    16      16       --         1.232 au  C             1.00      1 D:x2-y2         1
                        (      33.528 eV)
    17      17       --         1.232 au  C             1.00      1 D:xy            1
                        (      33.528 eV)
    18      18       --         1.232 au  C             1.00      1 D:xz            1
                        (      33.528 eV)
    19      19       --         1.232 au  C             1.00      1 D:yz            1
                        (      33.528 eV)
    20      20      2.000     -10.058 au  C             1.00      1 S               2
                        (    -273.681 eV)
    21      21      2.000      -0.510 au  C             1.00      2 S               2
                        (     -13.876 eV)
    22      22       --         0.371 au  C             1.00      3 S               2
                        (      10.091 eV)
    23      23       --         5.428 au  C             1.00      4 S               2
                        (     147.707 eV)
    24      24       --        50.181 au  C             1.00      5 S               2
                        (    1365.486 eV)
    25      25      0.667      -0.199 au  C             1.00      1 P:x             2
                        (      -5.403 eV)
    26      26       --         0.173 au  C             1.00      2 P:x             2
                        (       4.709 eV)
    27      27       --         2.026 au  C             1.00      3 P:x             2
                        (      55.143 eV)
    28      28      0.667      -0.199 au  C             1.00      1 P:y             2
                        (      -5.403 eV)
    29      29       --         0.173 au  C             1.00      2 P:y             2
                        (       4.709 eV)
    30      30       --         2.026 au  C             1.00      3 P:y             2
                        (      55.143 eV)
    31      31      0.667      -0.199 au  C             1.00      1 P:z             2
                        (      -5.403 eV)
    32      32       --         0.173 au  C             1.00      2 P:z             2
                        (       4.709 eV)
    33      33       --         2.026 au  C             1.00      3 P:z             2
                        (      55.143 eV)
    34      34       --         1.232 au  C             1.00      1 D:z2            2
                        (      33.528 eV)
    35      35       --         1.232 au  C             1.00      1 D:x2-y2         2
                        (      33.528 eV)
    36      36       --         1.232 au  C             1.00      1 D:xy            2
                        (      33.528 eV)
    37      37       --         1.232 au  C             1.00      1 D:xz            2
                        (      33.528 eV)
    38      38       --         1.232 au  C             1.00      1 D:yz            2
                        (      33.528 eV)
    39      39      2.000     -10.058 au  C             1.00      1 S               3
                        (    -273.681 eV)
    40      40      2.000      -0.510 au  C             1.00      2 S               3
                        (     -13.876 eV)
    41      41       --         0.371 au  C             1.00      3 S               3
                        (      10.091 eV)
    42      42       --         5.428 au  C             1.00      4 S               3
                        (     147.707 eV)
    43      43       --        50.181 au  C             1.00      5 S               3
                        (    1365.486 eV)
    44      44      0.667      -0.199 au  C             1.00      1 P:x             3
                        (      -5.403 eV)
    45      45       --         0.173 au  C             1.00      2 P:x             3
                        (       4.709 eV)
    46      46       --         2.026 au  C             1.00      3 P:x             3
                        (      55.143 eV)
    47      47      0.667      -0.199 au  C             1.00      1 P:y             3
                        (      -5.403 eV)
    48      48       --         0.173 au  C             1.00      2 P:y             3
                        (       4.709 eV)
    49      49       --         2.026 au  C             1.00      3 P:y             3
                        (      55.143 eV)
    50      50      0.667      -0.199 au  C             1.00      1 P:z             3
                        (      -5.403 eV)
    51      51       --         0.173 au  C             1.00      2 P:z             3
                        (       4.709 eV)
    52      52       --         2.026 au  C             1.00      3 P:z             3
                        (      55.143 eV)
    53      53       --         1.232 au  C             1.00      1 D:z2            3
                        (      33.528 eV)
    54      54       --         1.232 au  C             1.00      1 D:x2-y2         3
                        (      33.528 eV)
    55      55       --         1.232 au  C             1.00      1 D:xy            3
                        (      33.528 eV)
    56      56       --         1.232 au  C             1.00      1 D:xz            3
                        (      33.528 eV)
    57      57       --         1.232 au  C             1.00      1 D:yz            3
                        (      33.528 eV)
    58      58      2.000     -10.058 au  C             1.00      1 S               4
                        (    -273.681 eV)
    59      59      2.000      -0.510 au  C             1.00      2 S               4
                        (     -13.876 eV)
    60      60       --         0.371 au  C             1.00      3 S               4
                        (      10.091 eV)
    61      61       --         5.428 au  C             1.00      4 S               4
                        (     147.707 eV)
    62      62       --        50.181 au  C             1.00      5 S               4
                        (    1365.486 eV)
    63      63      0.667      -0.199 au  C             1.00      1 P:x             4
                        (      -5.403 eV)
    64      64       --         0.173 au  C             1.00      2 P:x             4
                        (       4.709 eV)
    65      65       --         2.026 au  C             1.00      3 P:x             4
                        (      55.143 eV)
    66      66      0.667      -0.199 au  C             1.00      1 P:y             4
                        (      -5.403 eV)
    67      67       --         0.173 au  C             1.00      2 P:y             4
                        (       4.709 eV)
    68      68       --         2.026 au  C             1.00      3 P:y             4
                        (      55.143 eV)
    69      69      0.667      -0.199 au  C             1.00      1 P:z             4
                        (      -5.403 eV)
    70      70       --         0.173 au  C             1.00      2 P:z             4
                        (       4.709 eV)
    71      71       --         2.026 au  C             1.00      3 P:z             4
                        (      55.143 eV)
    72      72       --         1.232 au  C             1.00      1 D:z2            4
                        (      33.528 eV)
    73      73       --         1.232 au  C             1.00      1 D:x2-y2         4
                        (      33.528 eV)
    74      74       --         1.232 au  C             1.00      1 D:xy            4
                        (      33.528 eV)
    75      75       --         1.232 au  C             1.00      1 D:xz            4
                        (      33.528 eV)
    76      76       --         1.232 au  C             1.00      1 D:yz            4
                        (      33.528 eV)
    77      77      2.000     -10.058 au  C             1.00      1 S               5
                        (    -273.681 eV)
    78      78      2.000      -0.510 au  C             1.00      2 S               5
                        (     -13.876 eV)
    79      79       --         0.371 au  C             1.00      3 S               5
                        (      10.091 eV)
    80      80       --         5.428 au  C             1.00      4 S               5
                        (     147.707 eV)
    81      81       --        50.181 au  C             1.00      5 S               5
                        (    1365.486 eV)
    82      82      0.667      -0.199 au  C             1.00      1 P:x             5
                        (      -5.403 eV)
    83      83       --         0.173 au  C             1.00      2 P:x             5
                        (       4.709 eV)
    84      84       --         2.026 au  C             1.00      3 P:x             5
                        (      55.143 eV)
    85      85      0.667      -0.199 au  C             1.00      1 P:y             5
                        (      -5.403 eV)
    86      86       --         0.173 au  C             1.00      2 P:y             5
                        (       4.709 eV)
    87      87       --         2.026 au  C             1.00      3 P:y             5
                        (      55.143 eV)
    88      88      0.667      -0.199 au  C             1.00      1 P:z             5
                        (      -5.403 eV)
    89      89       --         0.173 au  C             1.00      2 P:z             5
                        (       4.709 eV)
    90      90       --         2.026 au  C             1.00      3 P:z             5
                        (      55.143 eV)
    91      91       --         1.232 au  C             1.00      1 D:z2            5
                        (      33.528 eV)
    92      92       --         1.232 au  C             1.00      1 D:x2-y2         5
                        (      33.528 eV)
    93      93       --         1.232 au  C             1.00      1 D:xy            5
                        (      33.528 eV)
    94      94       --         1.232 au  C             1.00      1 D:xz            5
                        (      33.528 eV)
    95      95       --         1.232 au  C             1.00      1 D:yz            5
                        (      33.528 eV)
    96      96      2.000     -10.058 au  C             1.00      1 S               6
                        (    -273.681 eV)
    97      97      2.000      -0.510 au  C             1.00      2 S               6
                        (     -13.876 eV)
    98      98       --         0.371 au  C             1.00      3 S               6
                        (      10.091 eV)
    99      99       --         5.428 au  C             1.00      4 S               6
                        (     147.707 eV)
   100     100       --        50.181 au  C             1.00      5 S               6
                        (    1365.486 eV)
   101     101      0.667      -0.199 au  C             1.00      1 P:x             6
                        (      -5.403 eV)
   102     102       --         0.173 au  C             1.00      2 P:x             6
                        (       4.709 eV)
   103     103       --         2.026 au  C             1.00      3 P:x             6
                        (      55.143 eV)
   104     104      0.667      -0.199 au  C             1.00      1 P:y             6
                        (      -5.403 eV)
   105     105       --         0.173 au  C             1.00      2 P:y             6
                        (       4.709 eV)
   106     106       --         2.026 au  C             1.00      3 P:y             6
                        (      55.143 eV)
   107     107      0.667      -0.199 au  C             1.00      1 P:z             6
                        (      -5.403 eV)
   108     108       --         0.173 au  C             1.00      2 P:z             6
                        (       4.709 eV)
   109     109       --         2.026 au  C             1.00      3 P:z             6
                        (      55.143 eV)
   110     110       --         1.232 au  C             1.00      1 D:z2            6
                        (      33.528 eV)
   111     111       --         1.232 au  C             1.00      1 D:x2-y2         6
                        (      33.528 eV)
   112     112       --         1.232 au  C             1.00      1 D:xy            6
                        (      33.528 eV)
   113     113       --         1.232 au  C             1.00      1 D:xz            6
                        (      33.528 eV)
   114     114       --         1.232 au  C             1.00      1 D:yz            6
                        (      33.528 eV)
   115     115      1.000      -0.244 au  H             1.00      1 S               7
                        (      -6.626 eV)
   116     116       --         0.093 au  H             1.00      2 S               7
                        (       2.536 eV)
   117     117       --         1.515 au  H             1.00      3 S               7
                        (      41.236 eV)
   118     118       --         0.400 au  H             1.00      1 P:x             7
                        (      10.872 eV)
   119     119       --         0.400 au  H             1.00      1 P:y             7
                        (      10.872 eV)
   120     120       --         0.400 au  H             1.00      1 P:z             7
                        (      10.872 eV)
   121     121      1.000      -0.244 au  H             1.00      1 S               8
                        (      -6.626 eV)
   122     122       --         0.093 au  H             1.00      2 S               8
                        (       2.536 eV)
   123     123       --         1.515 au  H             1.00      3 S               8
                        (      41.236 eV)
   124     124       --         0.400 au  H             1.00      1 P:x             8
                        (      10.872 eV)
   125     125       --         0.400 au  H             1.00      1 P:y             8
                        (      10.872 eV)
   126     126       --         0.400 au  H             1.00      1 P:z             8
                        (      10.872 eV)
   127     127      1.000      -0.244 au  H             1.00      1 S               9
                        (      -6.626 eV)
   128     128       --         0.093 au  H             1.00      2 S               9
                        (       2.536 eV)
   129     129       --         1.515 au  H             1.00      3 S               9
                        (      41.236 eV)
   130     130       --         0.400 au  H             1.00      1 P:x             9
                        (      10.872 eV)
   131     131       --         0.400 au  H             1.00      1 P:y             9
                        (      10.872 eV)
   132     132       --         0.400 au  H             1.00      1 P:z             9
                        (      10.872 eV)
   133     133      1.000      -0.244 au  H             1.00      1 S              10
                        (      -6.626 eV)
   134     134       --         0.093 au  H             1.00      2 S              10
                        (       2.536 eV)
   135     135       --         1.515 au  H             1.00      3 S              10
                        (      41.236 eV)
   136     136       --         0.400 au  H             1.00      1 P:x            10
                        (      10.872 eV)
   137     137       --         0.400 au  H             1.00      1 P:y            10
                        (      10.872 eV)
   138     138       --         0.400 au  H             1.00      1 P:z            10
                        (      10.872 eV)
   139     139      1.000      -0.244 au  H             1.00      1 S              11
                        (      -6.626 eV)
   140     140       --         0.093 au  H             1.00      2 S              11
                        (       2.536 eV)
   141     141       --         1.515 au  H             1.00      3 S              11
                        (      41.236 eV)
   142     142       --         0.400 au  H             1.00      1 P:x            11
                        (      10.872 eV)
   143     143       --         0.400 au  H             1.00      1 P:y            11
                        (      10.872 eV)
   144     144       --         0.400 au  H             1.00      1 P:z            11
                        (      10.872 eV)
   145     145      1.000      -0.244 au  H             1.00      1 S              12
                        (      -6.626 eV)
   146     146       --         0.093 au  H             1.00      2 S              12
                        (       2.536 eV)
   147     147       --         1.515 au  H             1.00      3 S              12
                        (      41.236 eV)
   148     148       --         0.400 au  H             1.00      1 P:x            12
                        (      10.872 eV)
   149     149       --         0.400 au  H             1.00      1 P:y            12
                        (      10.872 eV)
   150     150       --         0.400 au  H             1.00      1 P:z            12
                        (      10.872 eV)



 ================================
 (Slater-type)  F U N C T I O N S  ***  (Basis and Fit)  ***
 ================================
  

 Atom Type    1  (C)
 ==============

 Valence Basis Sets:   9
 -----------------------
   1 S    7.680000
   1 S    5.000000
   2 S    1.280000
   2 S    2.100000
   2 S    4.600000
   2 P    0.820000
   2 P    1.480000
   2 P    2.940000
   3 D    2.200000

 Atom Type    2  (H)
 ==============

 Valence Basis Sets:   4
 -----------------------
   1 S    0.690000
   1 S    0.920000
   1 S    1.580000
   2 P    1.250000


 BAS: List of all Elementary Cartesian Basis Functions
 =====================================================

 The numbering in the list below (to the right of the function characteristics) is referred
 to in print-outs of MO eigenvectors and Mulliken populations in the BAS representation
 (as contrasted to the SFO representation).

 Notes:
 1. The functions are characterized by a polynomial prefactor (powers of x,y,z and r) and
    an exponential decay factor alpha.
 2. Since the basis sets are specific for an atom TYPE, the individual functions occur on
    all atoms of that type.
 3. The word 'Core' in the left margin signals that it is a Core Function (CF) : not a
    degree of freedom in the valence set, but only used to ensure orthogonalization of
    the other valence basis functions on the frozen Core Orbitals.


 (power of) X  Y  Z  R     Alpha  on Atom
            ==========     =====     ==========

 C                                    1    2    3    4    5    6
                                  ---------------------------------------------------------------------------
            0  0  0  0     7.680      1   21   41   61   81  101
            0  0  0  0     5.000      2   22   42   62   82  102
            0  0  0  1     1.280      3   23   43   63   83  103
            0  0  0  1     2.100      4   24   44   64   84  104
            0  0  0  1     4.600      5   25   45   65   85  105
            1  0  0  0     0.820      6   26   46   66   86  106
            0  1  0  0     0.820      7   27   47   67   87  107
            0  0  1  0     0.820      8   28   48   68   88  108
            1  0  0  0     1.480      9   29   49   69   89  109
            0  1  0  0     1.480     10   30   50   70   90  110
            0  0  1  0     1.480     11   31   51   71   91  111
            1  0  0  0     2.940     12   32   52   72   92  112
            0  1  0  0     2.940     13   33   53   73   93  113
            0  0  1  0     2.940     14   34   54   74   94  114
            2  0  0  0     2.200     15   35   55   75   95  115
            1  1  0  0     2.200     16   36   56   76   96  116
            1  0  1  0     2.200     17   37   57   77   97  117
            0  2  0  0     2.200     18   38   58   78   98  118
            0  1  1  0     2.200     19   39   59   79   99  119
            0  0  2  0     2.200     20   40   60   80  100  120

 H                                    7    8    9   10   11   12
                                  ---------------------------------------------------------------------------
            0  0  0  0     0.690    121  127  133  139  145  151
            0  0  0  0     0.920    122  128  134  140  146  152
            0  0  0  0     1.580    123  129  135  141  147  153
            1  0  0  0     1.250    124  130  136  142  148  154
            0  1  0  0     1.250    125  131  137  143  149  155
            0  0  1  0     1.250    126  132  138  144  150  156

 Total number of charge fitting functions (nprimf)       804
 Total number of Cartesian basis functions (naos)        156
 Total number of Cartesian core functions  (ncos)          0

1
 ***************************************************************************************************



                                              ***********************
                                              *  T E C H N I C A L  *
                                              ***********************
  



 =============================================================
 P A R A L L E L I Z A T I O N  and  V E C T O R I Z A T I O N
 =============================================================
  
 Nr of parallel processes:                                6
 Maximum vector length in NumInt loops:                 128



 =====================
 S C F   U P D A T E S
 =====================
  
 Max. nr. of cycles:                               300
 Convergence criterion:                              0.0000010000
   secondary criterion:                              0.0010000000

 Mix parameter (when DIIS does not apply):           0.2000000000
 Mixed ADIIS+SDIIS will be used                  
    Max number of expansion vectors:                10
    Pure ADIIS when Max([F,P]) is above              0.1000000000
    Pure SDIIS when Max([F,P]) is below              0.0010000000
 Automatic ElectronSmearing (in case of problematic SCF convergence) disabled



 =================
 P R E C I S I O N  ***  (General: NumInt, NeglectFunctionTails, ...)  ***
 =================
  

 NumInt:           Target precision:                 4.0000000000
 -------           Initial precision:                4.0000000000
                   Min. precision (optimization):    4.0000000000

 Neglect Functions:          Basis functions:        0.1000000000E-13
 ------------------          Fit functions:          0.1000000000E-13



 ===========================
 L I N E A R   S C A L I N G
 ===========================
  

 Cut-off radii density fit:                        0.1000000000E-07
 Overlap cut-off criterion AO matrix elements:     0.1000000000E-05
 Cut-offs for Coulomb potential and fitted density:0.1000000000E-07
 Cut-off criterion for Coulomb multipole terms:    0.1000000000E-07
 Progressive Convergence parameter:                 0.000000000    
1
 ***************************************************************************************************



                                            ***************************
                                            *  C O M P U T A T I O N  *
                                            ***************************
  

 Number of elements of the density matrix on this node (used, total):      1962     12246



 ===========================================
 Numerical Integration : Fuzzy Cells (Becke)
 ===========================================
  
 Becke grid quality: NORMAL         
  
 Lebedev angular grid order:             min:  11 max:  23
 Nr. of radial points:                   min:  46 max:  52

 Total nr. of points:      75660
 Nr. of blocks:              592
 Block length:               128
 Nr. of dummy points:        116


 Test of Precision of the Numerical Integration Grid
 ===================================================

 Integral of the Total Core Density:                   0.00000000000000



 ========================
 Density Fitting (zlmFit)
 ========================
  
 ZlmFit Fit Quality: NORMAL         
  
 Max L-expansion:                        min:   5 max:   6
 Nr. of radial interpolation points:     min:  36 max:  48



 =====
 S C F  ***  ScaSCF  ***
 =====
  
 Initial density matrix is calculated as sum of fragments

 CYCLE    1
 SCF Error: norm([F,P])=      5.990923598102, max([F,P])=      0.980271610077
 orbitals (Q,E):
 ---------------
 A :12...31          ( 2.00    -0.6583)  ( 2.00    -0.6250)  ( 2.00    -0.5884)  ( 2.00    -0.5691)
                     ( 2.00    -0.5689)  ( 2.00    -0.5031)  ( 2.00    -0.5016)  ( 2.00    -0.5015)
                     ( 2.00    -0.4055)  ( 2.00    -0.4055)  ( 0.00    -0.2151)  ( 0.00    -0.2151)
                     ( 0.00    -0.0768)  ( 0.00    -0.0731)  ( 0.00    -0.0375)  ( 0.00    -0.0375)
                     ( 0.00    -0.0111)  ( 0.00    -0.0111)  ( 0.00     0.0270)  ( 0.00     0.0510)

 CYCLE    2
   MIX coefficients:  0.8000  0.2000
 SCF Error: norm([F,P])=      0.892322475160, max([F,P])=      0.187099979245
 orbitals (Q,E):
 ---------------
 A :12...22          ( 2.00    -0.5946)  ( 2.00    -0.5421)  ( 2.00    -0.5328)  ( 2.00    -0.5022)
                     ( 2.00    -0.5020)  ( 2.00    -0.4366)  ( 2.00    -0.4344)  ( 2.00    -0.4343)
                     ( 2.00    -0.3389)  ( 2.00    -0.3388)  ( 0.00    -0.1501)

 CYCLE    3
  SDIIS (wt  0.000): -1.2669  2.2669
 A-DIIS (wt  1.000):  0.0000  1.0000
  DIIS coefficients:  0.0000  1.0000
 SCF Error: norm([F,P])=      0.521451481079, max([F,P])=      0.102605409291
 orbitals (Q,E):
 ---------------
 A :12...22          ( 2.00    -0.3985)  ( 2.00    -0.3564)  ( 2.00    -0.2966)  ( 2.00    -0.2964)
                     ( 2.00    -0.2951)  ( 2.00    -0.2475)  ( 2.00    -0.2227)  ( 2.00    -0.2227)
                     ( 2.00    -0.1499)  ( 2.00    -0.1498)  ( 0.00     0.0285)

 CYCLE    4
  SDIIS (wt  0.000):  0.1837  0.3521  0.4642
 A-DIIS (wt  1.000):  0.0000  0.6402  0.3598
  DIIS coefficients:  0.0000  0.6402  0.3598
 SCF Error: norm([F,P])=      0.743249653910, max([F,P])=      0.172650747632
 orbitals (Q,E):
 ---------------
 A :12...22          ( 2.00    -0.4673)  ( 2.00    -0.4037)  ( 2.00    -0.3933)  ( 2.00    -0.3709)
                     ( 2.00    -0.3706)  ( 2.00    -0.3293)  ( 2.00    -0.2970)  ( 2.00    -0.2969)
                     ( 2.00    -0.2286)  ( 2.00    -0.2286)  ( 0.00    -0.0404)

 CYCLE    5
  SDIIS (wt  0.902): -0.0172  0.2159  0.0732  0.7280
 A-DIIS (wt  0.098):  0.0000  0.0000  0.0000  1.0000
  DIIS coefficients: -0.0155  0.1947  0.0660  0.7548
 SCF Error: norm([F,P])=      0.076223823095, max([F,P])=      0.010729960500
 orbitals (Q,E):
 ---------------
 A :12...22          ( 2.00    -0.4793)  ( 2.00    -0.4187)  ( 2.00    -0.4084)  ( 2.00    -0.3828)
                     ( 2.00    -0.3825)  ( 2.00    -0.3380)  ( 2.00    -0.3110)  ( 2.00    -0.3109)
                     ( 2.00    -0.2384)  ( 2.00    -0.2383)  ( 0.00    -0.0510)

 CYCLE    6
  SDIIS (wt  0.993): -0.0029  0.0315  0.0082  0.1926  0.7705
 A-DIIS (wt  0.007):  0.0000  0.0000  0.0000  0.0000  1.0000
  DIIS coefficients: -0.0028  0.0313  0.0082  0.1913  0.7721
 SCF Error: norm([F,P])=      0.010709331620, max([F,P])=      0.001695658516
 orbitals (Q,E):
 ---------------
 A :12...22          ( 2.00    -0.4790)  ( 2.00    -0.4180)  ( 2.00    -0.4073)  ( 2.00    -0.3826)
                     ( 2.00    -0.3824)  ( 2.00    -0.3374)  ( 2.00    -0.3104)  ( 2.00    -0.3103)
                     ( 2.00    -0.2377)  ( 2.00    -0.2376)  ( 0.00    -0.0502)

 CYCLE    7
  SDIIS (wt  1.000):  0.0009  0.0020  0.0002  0.0235  0.1236  0.8498
  DIIS coefficients:  0.0009  0.0020  0.0002  0.0235  0.1236  0.8498
 SCF Error: norm([F,P])=      0.001136359357, max([F,P])=      0.000271626213
 orbitals (Q,E):
 ---------------
 A :12...22          ( 2.00    -0.4791)  ( 2.00    -0.4181)  ( 2.00    -0.4075)  ( 2.00    -0.3827)
                     ( 2.00    -0.3824)  ( 2.00    -0.3376)  ( 2.00    -0.3105)  ( 2.00    -0.3104)
                     ( 2.00    -0.2379)  ( 2.00    -0.2378)  ( 0.00    -0.0504)

 CYCLE    8
  SDIIS (wt  1.000):  0.0005  0.0005  0.0000  0.0093  0.0525  0.4241  0.5131
  DIIS coefficients:  0.0005  0.0005  0.0000  0.0093  0.0525  0.4241  0.5131
 SCF Error: norm([F,P])=      0.000330774785, max([F,P])=      0.000080959252
 orbitals (Q,E):
 ---------------
 A :12...22          ( 2.00    -0.4791)  ( 2.00    -0.4181)  ( 2.00    -0.4075)  ( 2.00    -0.3827)
                     ( 2.00    -0.3825)  ( 2.00    -0.3376)  ( 2.00    -0.3105)  ( 2.00    -0.3105)
                     ( 2.00    -0.2379)  ( 2.00    -0.2378)  ( 0.00    -0.0504)

 CYCLE    9
  SDIIS (wt  1.000):  0.0001 -0.0002 -0.0000 -0.0004 -0.0008  0.0143  0.3274  0.6596
  DIIS coefficients:  0.0001 -0.0002 -0.0000 -0.0004 -0.0008  0.0143  0.3274  0.6596
 SCF Error: norm([F,P])=      0.000158329125, max([F,P])=      0.000040027339
 orbitals (Q,E):
 ---------------
 A :12...22          ( 2.00    -0.4791)  ( 2.00    -0.4181)  ( 2.00    -0.4075)  ( 2.00    -0.3827)
                     ( 2.00    -0.3825)  ( 2.00    -0.3376)  ( 2.00    -0.3105)  ( 2.00    -0.3105)
                     ( 2.00    -0.2379)  ( 2.00    -0.2378)  ( 0.00    -0.0504)

 CYCLE   10
  SDIIS (wt  1.000):  0.0000 -0.0001 -0.0000 -0.0002 -0.0004  0.0060  0.1451  0.2937  0.5558
  DIIS coefficients:  0.0000 -0.0001 -0.0000 -0.0002 -0.0004  0.0060  0.1451  0.2937  0.5558
 SCF Error: norm([F,P])=      0.000007750840, max([F,P])=      0.000001908542
 orbitals (Q,E):
 ---------------
 A :12...22          ( 2.00    -0.4791)  ( 2.00    -0.4181)  ( 2.00    -0.4075)  ( 2.00    -0.3827)
                     ( 2.00    -0.3825)  ( 2.00    -0.3376)  ( 2.00    -0.3105)  ( 2.00    -0.3105)
                     ( 2.00    -0.2379)  ( 2.00    -0.2378)  ( 0.00    -0.0504)

 CYCLE   11
  SDIIS (wt  1.000):  0.0000 -0.0000 -0.0000  0.0000 -0.0000 -0.0002 -0.0024 -0.0036  0.5152  0.4910
  DIIS coefficients:  0.0000 -0.0000 -0.0000  0.0000 -0.0000 -0.0002 -0.0024 -0.0036  0.5152  0.4910
 SCF Error: norm([F,P])=      0.000008017295, max([F,P])=      0.000002076118
 orbitals (Q,E):
 ---------------
 A :12...22          ( 2.00    -0.4791)  ( 2.00    -0.4181)  ( 2.00    -0.4075)  ( 2.00    -0.3827)
                     ( 2.00    -0.3825)  ( 2.00    -0.3376)  ( 2.00    -0.3105)  ( 2.00    -0.3105)
                     ( 2.00    -0.2379)  ( 2.00    -0.2378)  ( 0.00    -0.0504)

 CYCLE   12
  SDIIS (wt  1.000): -0.0000 -0.0000  0.0000 -0.0000 -0.0001 -0.0016 -0.0029  0.1452  0.1399  0.7195
  DIIS coefficients: -0.0000 -0.0000  0.0000 -0.0000 -0.0001 -0.0016 -0.0029  0.1452  0.1399  0.7195
 SCF Error: norm([F,P])=      0.000000107438, max([F,P])=      0.000000014294
 orbitals (Q,E):
 ---------------
 A :12...22          ( 2.00    -0.4791)  ( 2.00    -0.4181)  ( 2.00    -0.4075)  ( 2.00    -0.3827)
                     ( 2.00    -0.3825)  ( 2.00    -0.3376)  ( 2.00    -0.3105)  ( 2.00    -0.3105)
                     ( 2.00    -0.2379)  ( 2.00    -0.2378)  ( 0.00    -0.0504)

 SCF CONVERGED

 CYCLE   13
1
 ***************************************************************************************************



                                                *******************
                                                *  R E S U L T S  *
                                                *******************
  
 *** Using FIT density in Focky
  SDIIS (wt  1.000): -0.0000  0.0000 -0.0000 -0.0000 -0.0005 -0.0008  0.0420  0.0405  0.4100  0.5089
  DIIS coefficients: -0.0000  0.0000 -0.0000 -0.0000 -0.0005 -0.0008  0.0420  0.0405  0.4100  0.5089
 SCF Error: norm([F,P])=      0.000000071961, max([F,P])=      0.000000013725

 Orbital Energies, per Irrep and Spin:
 ======================================
                        Occup              E (au)              E (eV)       Diff (eV) with prev. cycle
                        -----      --------------------        ------       --------------------------
 A
              12        2.000     -0.47913276065923E+00       -13.038              -7.22E-09
              13        2.000     -0.41810955613752E+00       -11.377              -7.25E-09
              14        2.000     -0.40754959140816E+00       -11.090              -3.03E-11
              15        2.000     -0.38269345216387E+00       -10.414              -5.09E-09
              16        2.000     -0.38246888029938E+00       -10.408              -6.00E-09
              17        2.000     -0.33757858359917E+00        -9.186              -4.80E-09
              18        2.000     -0.31054090271107E+00        -8.450              -2.02E-09
              19        2.000     -0.31046415093884E+00        -8.448              -5.06E-09
              20        2.000     -0.23788060385874E+00        -6.473              -4.35E-09
              21        2.000     -0.23782139034902E+00        -6.471              -3.11E-09
              22        0.000     -0.50385070282354E-01        -1.371
              23        0.000     -0.50334827054933E-01        -1.370
              24        0.000      0.20341033681368E-02         0.055
              25        0.000      0.27837936262489E-01         0.758
              26        0.000      0.27862434252342E-01         0.758
              27        0.000      0.60712771124917E-01         1.652
              28        0.000      0.60762522587489E-01         1.653
              29        0.000      0.90657716840422E-01         2.467
              30        0.000      0.96118827501683E-01         2.616
              31        0.000      0.14212188971192E+00         3.867
  
 HOMO :       21 A                -0.23782139034902E+00
 LUMO :       22 A                -0.50385070282354E-01
  


 All Electron Calculation, thus no Orbital Energies of the Core Orbitals are calculated


 Fit test: (difference of exact and fit density, squared integrated, result summed over spins)
         Sum-of-Fragments:                             0.00000000048365
         Orthogonalized Fragments:                     0.00013298957036
         SCF:                                          0.00048706286571



 ==========================
 Electron Density at Nuclei
 ==========================
  
 The electron density is calculated at points on a small sphere around the center of a nucleus.
 The printed electron density is the average electron density on these points.
 The radius of the sphere is the printed approximate finite nuclear radius.

         Atom        Nuclear Radius (Angstrom)             Electron Density (a.u.)
         ----        -------------------------             -----------------------
     1)   C                 0.0000320678                              126.51441
     2)   C                 0.0000320678                              126.51570
     3)   C                 0.0000320678                              126.51464
     4)   C                 0.0000320678                              126.51442
     5)   C                 0.0000320678                              126.51570
     6)   C                 0.0000320678                              126.51461
     7)   H                 0.0000181514                                0.49874
     8)   H                 0.0000181514                                0.49869
     9)   H                 0.0000181514                                0.49864
    10)   H                 0.0000181514                                0.49874
    11)   H                 0.0000181514                                0.49863
    12)   H                 0.0000181514                                0.49864



 =======================================
 M U L L I K E N   P O P U L A T I O N S
 =======================================
  
 The survey below gives for each atom:
 a) the total charge (Z minus electrons)
 b) the net spin polarization (nr of electrons spin-A minus spin-B)
 c) for each spin the atomic electron valence density (integrated) per L-value.

 Atom              Charge    Spin density          S         P         D         F
 ----              ------    ------------       ------    ------    ------    ------
 1 C               0.1754                       3.0649    2.6987    0.0610    0.0000
 2 C               0.1757                       3.0649    2.6984    0.0610    0.0000
 3 C               0.1755                       3.0650    2.6985    0.0610    0.0000
 4 C               0.1754                       3.0649    2.6987    0.0610    0.0000
 5 C               0.1757                       3.0649    2.6984    0.0610    0.0000
 6 C               0.1755                       3.0650    2.6985    0.0610    0.0000
 7 H              -0.1759                       1.1045    0.0715    0.0000    0.0000
 8 H              -0.1757                       1.1042    0.0714    0.0000    0.0000
 9 H              -0.1750                       1.1037    0.0714    0.0000    0.0000
 10 H             -0.1759                       1.1045    0.0715    0.0000    0.0000
 11 H             -0.1756                       1.1042    0.0714    0.0000    0.0000
 12 H             -0.1750                       1.1037    0.0714    0.0000    0.0000

 Populations of individual BAS functions
 ----------------------------------------
 1 C            0.4869  1.5144  0.2298  0.8872 -0.0535 -0.1033  0.1475 -0.2378  0.8054  0.6780
                0.8823  0.2001  0.1366  0.1899  0.0268  0.0122  0.0174 -0.0175  0.0040  0.0181
 2 C            0.4870  1.5144  0.2297  0.8874 -0.0535 -0.2025  0.1473 -0.1396  0.8621  0.6781
                0.8264  0.1926  0.1366  0.1973  0.0181  0.0062  0.0220 -0.0175  0.0100  0.0222
 3 C            0.4870  1.5144  0.2298  0.8873 -0.0535 -0.2072  0.1474 -0.1344  0.8647  0.6781
                0.8235  0.1922  0.1366  0.1977  0.0180  0.0059  0.0216 -0.0175  0.0103  0.0227
 4 C            0.4869  1.5144  0.2298  0.8872 -0.0535 -0.1033  0.1475 -0.2378  0.8054  0.6780
                0.8823  0.2001  0.1366  0.1899  0.0268  0.0122  0.0174 -0.0175  0.0040  0.0181
 5 C            0.4870  1.5144  0.2297  0.8874 -0.0535 -0.2024  0.1473 -0.1396  0.8621  0.6781
                0.8264  0.1926  0.1366  0.1973  0.0181  0.0062  0.0220 -0.0175  0.0100  0.0222
 6 C            0.4870  1.5144  0.2298  0.8873 -0.0535 -0.2072  0.1474 -0.1344  0.8647  0.6781
                0.8235  0.1922  0.1366  0.1977  0.0180  0.0059  0.0216 -0.0175  0.0103  0.0227
 7 H            0.2098  0.5759  0.3188  0.0288  0.0217  0.0209
 8 H            0.2093  0.5761  0.3188  0.0295  0.0217  0.0202
 9 H            0.2085  0.5762  0.3189  0.0162  0.0217  0.0334
 10 H           0.2097  0.5759  0.3188  0.0288  0.0217  0.0209
 11 H           0.2093  0.5762  0.3188  0.0295  0.0217  0.0202
 12 H           0.2085  0.5762  0.3189  0.0162  0.0217  0.0334

 Gross Charges per Atom (Z minus electrons)
 ==========================================
             0.1754    0.1757    0.1755    0.1754    0.1757    0.1755   -0.1759   -0.1757   -0.1750   -0.1759
            -0.1756   -0.1750
 Net Total: -0.00000000


 Atom-Atom Population Matrix (off-diagonal elements not doubled)
 ===============================================================

     1 :     4.5229
     2 :     0.5417    4.5223
     3 :    -0.0106    0.5417    4.5224
     4 :    -0.0557   -0.0106    0.5418    4.5229
     5 :    -0.0106   -0.0555   -0.0107    0.5417    4.5223
     6 :     0.5418   -0.0107   -0.0555   -0.0106    0.5417    4.5224
     7 :    -0.0536    0.3939   -0.0535    0.0022    0.0041    0.0021    0.9822
     8 :     0.0022   -0.0535    0.3939   -0.0537    0.0022    0.0041   -0.0476    0.9818
     9 :     0.0041    0.0021   -0.0534    0.3939   -0.0534    0.0021   -0.0038   -0.0476    0.9808
    10 :     0.0022    0.0041    0.0021   -0.0536    0.3939   -0.0535    0.0015   -0.0038   -0.0476    0.9821
    11 :    -0.0537    0.0022    0.0041    0.0022   -0.0535    0.3939   -0.0038    0.0015   -0.0038   -0.0476
             0.9818
    12 :     0.3939   -0.0534    0.0021    0.0041    0.0021   -0.0534   -0.0476   -0.0038    0.0016   -0.0038
            -0.0476    0.9808



 =================================================
 H I R S H F E L D   C H A R G E   A N A L Y S I S
 =================================================
  
 For each fragment: the (numerical) integral of rho(scf) * rho(fragment)/rho(sum-of-fragments)
 (nuclear charges are included, electrons are counted negative)

 The fragments and their ordering are defined in the early G E O M E T R Y output section.
 If you use single-atom fragments, this usually implies that all atoms of the same
 chemical type are grouped together. This may not be the order in which you listed them
 in the input file!

    1  C                        -0.0463
    2  C                        -0.0463
    3  C                        -0.0463
    4  C                        -0.0463
    5  C                        -0.0463
    6  C                        -0.0463
    7  H                         0.0463
    8  H                         0.0463
    9  H                         0.0462
   10  H                         0.0463
   11  H                         0.0463
   12  H                         0.0462

 Sum of these charges (accuracy NumInt/Tails) =          -0.00005973



 =============================
 V O R O N O I   C H A R G E S
 =============================
  
 For each atom: the (numerical) integral of the total electronic charge density in its Voronoi cell,
 i.e. the region of space that is closer to that atom than to any other atom.
 (cf. Wigner-Seitz cells in crystals)

 Within the Voronoi cell the subintegrals over the atomic sphere and the remaining part are evaluated
 separately to give the numbers of electrons (negative charge) in these regions.
 The net total charge in the cell (including the nuclear charge) is also given.

 Values are provided for
    a) the Initial (sum-of-fragments) density
    b) the Orthogonalized-Fragments density
    c) the SCF density
    d) the Voronoi Deformation Density (VDD): the difference SCF-Initial for the complete atomic cell


  Atom                Initial                    OrthFrag                   SCF
             Sphere RestCell NetTotal   Sphere RestCell NetTotal   Sphere RestCell NetTotal      VDD
 -----       ------------------------   ------------------------   ------------------------    -----
    1 C      -2.269   -3.186    0.546   -2.452   -3.137    0.411   -2.303   -3.207    0.490   -0.056
    2 C      -2.269   -3.191    0.541   -2.452   -3.137    0.410   -2.303   -3.208    0.489   -0.052
    3 C      -2.269   -3.189    0.542   -2.452   -3.142    0.406   -2.303   -3.211    0.486   -0.056
    4 C      -2.269   -3.186    0.546   -2.452   -3.137    0.411   -2.303   -3.207    0.490   -0.056
    5 C      -2.269   -3.191    0.541   -2.452   -3.137    0.410   -2.303   -3.208    0.489   -0.052
    6 C      -2.269   -3.189    0.542   -2.452   -3.142    0.406   -2.303   -3.211    0.486   -0.056
    7 H      -0.075   -1.473   -0.548   -0.096   -1.318   -0.413   -0.109   -1.384   -0.493    0.055
    8 H      -0.075   -1.466   -0.541   -0.096   -1.310   -0.406   -0.109   -1.376   -0.485    0.056
    9 H      -0.075   -1.466   -0.541   -0.096   -1.313   -0.408   -0.109   -1.379   -0.488    0.053
   10 H      -0.075   -1.473   -0.548   -0.096   -1.318   -0.413   -0.109   -1.384   -0.493    0.055
   11 H      -0.075   -1.466   -0.541   -0.096   -1.310   -0.406   -0.109   -1.376   -0.485    0.056
   12 H      -0.075   -1.466   -0.541   -0.096   -1.313   -0.408   -0.109   -1.379   -0.488    0.053
 ---------------------------------------------------------------------------------------------------
 Total NetCharge:              -0.000                     -0.000                     -0.000    0.000
 (accuracy NumInt/Tails)

 Remark: the 'NetTotal' Voronoi charges often do not match the Mulliken and/or Hirshfeld charges very
 well. This is caused by the fact that chemically different atoms are not treated in accordance with
 their relative sizes. (Voronoi cells are defined by boundary planes halfway between the atoms.)
 However, the CHANGES in charge, comparing 'Initial' to 'SCF' for instance, do give a fair indication
 of the flow of charge caused by the relaxation from sum-of-fragments to self-consistency.

 Warning: the absolute accuracy of the VDD charges obtained using the Fuzzy Cells (Becke) integration
 scheme is much poorer than the one obtained with an 'equivalent' Voronoi integration grid. 



 =================================================================
 M U L T I P O L E   D E R I V E D   C H A R G E   A N A L Y S I S
 =================================================================

 This charge analysis uses the atomic multipoles (obtained from the fitted density) up to some level X,
 and reconstructs these multipoles exactly (up to level X) by distributing charges over all atoms.
 This is achieved by using Lagrange multipliers and a weight function to keep the multipoles local.

 Dummy atoms can be included (by setting INCDUM in MDC-block to 1) to obtain a fractional charge.
 This is generally useful and necessary only for small symmetrical molecules, when there are not
 enough degrees of freedom to reconstruct the multipoles.

 Since the atomic multipoles are reconstructed up to level X,
 the molecular multipoles are represented also up to level X.
 The recommended level is to reconstruct up to quadrupole : -> MDC-q charges.

 See: M. Swart, P.Th. van Duijnen, J.G. Snijders, J.Comput.Chem., (2001), p. 79-88.

 ------------------------------------------------------------- 
 Atomic electronic multipole moments from SCF equations (a.u.)
 ------------------------------------------------------------- 

   atom        charge        dip-x     dip-y     dip-z      quad-xx   quad-xy   quad-xz   quad-yy   quad-yz   quad-zz
 --------------------------------------------------------------------------------------------------------------------
    1 C      0.060865     0.000982  0.000073 -0.047128     0.468899 -0.000031 -0.000742 -0.996629 -0.000122  0.527730
    2 C      0.060456    -0.042067  0.000966 -0.025612     0.508736 -0.001392  0.014896 -0.993827 -0.000827  0.485091
    3 C      0.060593    -0.042464  0.000890  0.023417     0.512309 -0.001317 -0.015005 -0.994875  0.000703  0.482566
    4 C      0.060866    -0.001005 -0.000073  0.047129     0.468913 -0.000031 -0.000788 -0.996632 -0.000122  0.527719
    5 C      0.060455     0.042065 -0.000966  0.025611     0.508744 -0.001392  0.014900 -0.993824 -0.000827  0.485081
    6 C      0.060585     0.042438 -0.000892 -0.023391     0.512328 -0.001320 -0.014981 -0.994872  0.000705  0.482544
    7 H     -0.060625    -0.019453  0.000223 -0.011860     0.160296 -0.000702  0.080511 -0.195369 -0.000397  0.035073
    8 H     -0.060618    -0.019829  0.000207  0.010960     0.170652 -0.000666 -0.076618 -0.195669  0.000331  0.025018
    9 H     -0.060672    -0.000497 -0.000017  0.022628    -0.038563 -0.000060 -0.003877 -0.194893 -0.000061  0.233456
   10 H     -0.060625     0.019453 -0.000223  0.011861     0.160297 -0.000702  0.080513 -0.195367 -0.000397  0.035071
   11 H     -0.060607     0.019849 -0.000208 -0.010962     0.170658 -0.000667 -0.076611 -0.195665  0.000332  0.025006
   12 H     -0.060672     0.000480  0.000017 -0.022628    -0.038568 -0.000060 -0.003859 -0.194892 -0.000061  0.233460

 --------------------------------------- 
 Multipole derived atomic charges (a.u.)
 --------------------------------------- 

 The MDC-m charges are just the Monopole terms in the multipole expansion, while for the MDC-d charges
 also the Dipoles are reconstructed. The usually preferred charges are the MDC-q charges.
 These reconstruct the Monopoles, Dipoles and Quadrupoles (both atomic AND molecular).

        Atom    Level:     MDC-m        MDC-d        MDC-q
 ---------------------------------------------------------
     1     C            0.060865     0.193422    -0.282452
     2     C            0.060456    -0.232039    -0.064739
     3     C            0.060593    -0.196328    -0.034658
     4     C            0.060866     0.193388    -0.282420
     5     C            0.060455    -0.231937    -0.064868
     6     C            0.060585    -0.196490    -0.034513
     7     H           -0.060625     0.135604     0.107700
     8     H           -0.060618     0.117429     0.098052
     9     H           -0.060672    -0.018043     0.176073
    10     H           -0.060625     0.135547     0.107767
    11     H           -0.060607     0.117506     0.097974
    12     H           -0.060672    -0.018058     0.176084

 ------------------------------------------------ 
 Average absolute deviations in atomic multipoles
 ------------------------------------------------ 

 Stated here are the average differences between the atomic multipoles
 and the reconstructed atomic multipoles (from the distributed charges).
 If these values are not zero, this means there are not enough degrees of freedom,
 to be able to reconstruct the atomic multipoles. (This usually happens only
 for small and/or highly symmetric molecules). If this is the case, one could add
 dummy atoms as extra point charges (and setting INCDUM in MDC-block to 1).

 Level:                                 MDC-d        MDC-q
 ---------------------------------------------------------
 Charge   (a.u.)                       0.0000       0.0000
 Dipole   (Debye)                      0.0000       0.0000
 Quad.    (a.u.)                       0.1173       0.0000

 --------------------------------------- 
 Represented molecular multipole moments
 --------------------------------------- 

 Given here are the Molecular multipole moments from the atomic charges, and from the Fit Density.
 Note that the atomic charges represent the latter, NOT the ones from the Exact density.

            Q (a.u.)             Dipole moment (Debye)                                          Quadrupole moment (a.u.)
                                 x         y         z              xx        xy        xz        yy        yz        zz
------------------------------------------------------------------------------------------------------------------------
MDC-m        -0.0000        0.0001    0.0000   -0.0000         -1.3797    0.0082   -0.0014    2.7587    0.0006   -1.3790
MDC-d        -0.0000       -0.0001   -0.0000    0.0000          2.2995   -0.0177    0.2201   -3.5626   -0.0012    1.2631
MDC-q        -0.0000       -0.0001   -0.0000    0.0000          2.9008   -0.0132    0.0052   -5.7910   -0.0020    2.8902
 
Fit.Dens.    -0.0000       -0.0001   -0.0000    0.0000          2.9008   -0.0191    0.0044   -5.7910   -0.0015    2.8902



 =============
 Dipole Moment  ***  (Debye)  ***
 =============
  
 Vector   :        -0.00006069     -0.00000337      0.00003096
 Magnitude:         0.00006822

 This molecular dipole moment is calculated with analytic integration



 =========================================
 Quadrupole Moment (Buckingham convention)  ***  (a.u.)  ***
 =========================================
  
      quad-xx        quad-xy        quad-xz        quad-yy        quad-yz        quad-zz
      2.91222425    -0.02347306     0.00259792    -5.81934386    -0.00194815     2.90711960

 This molecular quadrupole moment is calculated with analytic integration
1



 =======================================================
 S F O   P O P U L A T I O N S ,   M O   A N A L Y S I S
 =======================================================
  
 A Mulliken population analysis is performed on (input-)selected MOs. All populations refer to SFOs.
 BAS populations may have been printed directly after the SCF part.


                                       === A ===


 SFO contributions (%) per orbital
 (multiplication by the orbital occupation yields the SFO Gross Populations)

 Orb.:       12     13     14     15     16     17     18     19     20     21     22     23     24     25
 occup:     2.00   2.00   2.00   2.00   2.00   2.00   2.00   2.00   2.00   2.00   0.00   0.00   0.00   0.00
 CF+SFO     ----   ----   ----   ----   ----   ----   ----   ----   ----   ----   ----   ----   ----   ----
 ------
      2:    0.24   4.04   0.00   0.00   0.03  -0.00  -0.00  -0.06  -0.00   0.00   0.00   0.00  -0.24   0.01
      3:   -0.08   0.11   0.00  -0.00  -0.18  -0.00  -0.00  -0.02   0.00   0.00   0.00   0.00  -2.69  -0.10
      6:    0.01   0.00  14.44   0.43  -0.00   0.00   9.00   0.18   0.00   0.00   0.00   0.00   0.00  -1.75
      7:    0.00   0.00   2.00   0.66   0.00   0.00   2.99   0.06   0.00   0.00   0.00   0.00  -0.00  -8.16
      9:    0.00   0.00   0.00   0.00   0.00  17.22   0.00   0.00   0.27  31.49   0.42  34.08   0.00   0.00
     10:   -0.00   0.00   0.00  -0.00  -0.00  -0.98  -0.00   0.00   0.00   0.11  -0.05  -3.81  -0.00   0.00
     12:   10.70   2.58   0.01   0.31  17.49   0.00   0.13   5.74   0.00   0.00  -0.00   0.00   0.73   0.14
     13:    0.23   0.28   0.00   0.01   1.25   0.00   0.04   1.43   0.00   0.00   0.00  -0.00  -0.51  -1.62
     17:    0.00   0.00   0.00   0.00   0.00   0.00   0.00   0.00   0.60   0.00   1.12   0.02   0.00   0.00
     21:    0.24   4.02   0.00   0.03   0.01  -0.00  -0.05  -0.01   0.00   0.00   0.00   0.00  -0.24   0.01
     22:   -0.08   0.11   0.00  -0.16  -0.03  -0.00  -0.02  -0.00   0.00   0.00   0.00  -0.00  -2.69  -0.21
     25:    7.82   1.94   3.88  10.12   2.95   0.00   6.48   0.27   0.00   0.00   0.00   0.00   0.53  -0.73
     26:    0.17   0.21   0.54   0.24   0.86   0.00   1.99  -0.09  -0.00   0.00  -0.00  -0.00  -0.37  -9.02
     28:    0.00   0.00   0.00   0.00   0.00  17.22   0.00   0.00  26.20   5.56  22.37  12.12   0.00  -0.00
     29:   -0.00   0.00   0.00  -0.00   0.00  -0.98   0.00   0.00   0.10   0.02  -2.50  -1.35  -0.00  -0.00
     31:    2.88   0.71  10.59   5.12  -0.07   0.00  -0.12   8.39   0.00  -0.00   0.00   0.00   0.19  -0.35
     32:    0.06   0.07   1.46   0.93  -0.11   0.00  -0.28   2.91   0.00   0.00   0.00  -0.00  -0.14  -1.04
     40:    0.24   4.03   0.00   0.02   0.02  -0.00  -0.04  -0.02   0.00   0.00   0.00   0.00  -0.24   0.04
     41:   -0.08   0.11   0.00  -0.11  -0.07  -0.00  -0.01  -0.01   0.00   0.00   0.00   0.00  -2.69  -0.60
     44:    8.21   2.02   3.34   7.25   6.47   0.00   6.79  -0.16   0.00   0.00   0.00   0.00   0.56   0.44
     45:    0.18   0.22   0.46  -0.09   1.21  -0.00   2.19  -0.35  -0.00   0.00  -0.00  -0.00  -0.39  -9.42
     47:    0.00   0.00   0.00   0.00   0.00  17.22   0.00   0.00  21.17  10.59  28.95   5.55   0.00  -0.00
     48:   -0.00   0.00   0.00  -0.00  -0.00  -0.98   0.00   0.00   0.08   0.04  -3.23  -0.62  -0.00  -0.00
     50:    2.49   0.61  11.13   4.01   0.41   0.00   0.27   8.13   0.00   0.00   0.00   0.00   0.17   0.27
     51:    0.06   0.06   1.54   1.13  -0.33   0.00  -0.15   2.83   0.00  -0.00   0.00   0.00  -0.12  -1.64
     59:    0.24   4.04   0.00   0.00   0.03  -0.00  -0.00  -0.06  -0.00   0.00   0.00   0.00  -0.24   0.01
     60:   -0.08   0.11   0.00  -0.00  -0.18  -0.00  -0.00  -0.02   0.00   0.00   0.00   0.00  -2.69  -0.10
     63:    0.01   0.00  14.44   0.43  -0.00   0.00   9.00   0.18   0.00   0.00   0.00   0.00   0.00  -1.75
     64:    0.00   0.00   2.00   0.67   0.00   0.00   2.99   0.06   0.00   0.00   0.00   0.00  -0.00  -8.16
     66:    0.00   0.00   0.00   0.00   0.00  17.22   0.00   0.00   0.27  31.49   0.42  34.08   0.00   0.00
     67:   -0.00   0.00   0.00  -0.00  -0.00  -0.98  -0.00   0.00   0.00   0.11  -0.05  -3.81  -0.00   0.00
     69:   10.70   2.58   0.01   0.31  17.49   0.00   0.13   5.74   0.00   0.00  -0.00   0.00   0.73   0.14
     70:    0.23   0.28   0.00   0.01   1.25   0.00   0.04   1.43   0.00   0.00   0.00  -0.00  -0.51  -1.62
     74:    0.00   0.00   0.00   0.00   0.00   0.00   0.00   0.00   0.60   0.00   1.12   0.02   0.00   0.00
     78:    0.24   4.02   0.00   0.03   0.01  -0.00  -0.05  -0.01   0.00   0.00   0.00   0.00  -0.24   0.01
     79:   -0.08   0.11   0.00  -0.16  -0.03  -0.00  -0.02  -0.00   0.00   0.00   0.00  -0.00  -2.69  -0.21
     82:    7.82   1.94   3.88  10.12   2.95   0.00   6.48   0.27   0.00   0.00   0.00   0.00   0.53  -0.74
     83:    0.17   0.21   0.54   0.24   0.86   0.00   1.99  -0.09  -0.00   0.00  -0.00  -0.00  -0.37  -9.02
     85:    0.00   0.00   0.00   0.00   0.00  17.22   0.00   0.00  26.20   5.56  22.37  12.12   0.00  -0.00
     86:   -0.00   0.00   0.00  -0.00   0.00  -0.98   0.00   0.00   0.10   0.02  -2.50  -1.35  -0.00  -0.00
     88:    2.88   0.71  10.60   5.12  -0.07   0.00  -0.12   8.39   0.00  -0.00   0.00   0.00   0.19  -0.35
     89:    0.06   0.08   1.46   0.93  -0.11   0.00  -0.28   2.91   0.00   0.00   0.00  -0.00  -0.13  -1.04
     97:    0.24   4.03   0.00   0.02   0.02  -0.00  -0.04  -0.02   0.00   0.00   0.00   0.00  -0.24   0.04
     98:   -0.08   0.11   0.00  -0.11  -0.07  -0.00  -0.01  -0.01   0.00   0.00   0.00   0.00  -2.69  -0.60
    101:    8.21   2.02   3.34   7.25   6.48   0.00   6.79  -0.16   0.00   0.00   0.00   0.00   0.56   0.44
    102:    0.18   0.22   0.46  -0.09   1.21  -0.00   2.19  -0.35  -0.00   0.00  -0.00  -0.00  -0.39  -9.42
    104:    0.00   0.00   0.00   0.00   0.00  17.22   0.00   0.00  21.17  10.59  28.95   5.55   0.00  -0.00
    105:   -0.00   0.00   0.00  -0.00  -0.00  -0.98   0.00   0.00   0.08   0.04  -3.23  -0.62  -0.00  -0.00
    107:    2.49   0.61  11.13   4.01   0.41   0.00   0.27   8.13   0.00   0.00   0.00   0.00   0.17   0.27
    108:    0.05   0.06   1.54   1.13  -0.33   0.00  -0.15   2.83   0.00  -0.00   0.00   0.00  -0.12  -1.64
    115:    5.54   9.20   0.00  11.08   1.84   0.00  11.30   2.04   0.00   0.00   0.00   0.00   7.80   7.70
    116:   -0.02   0.16  -0.00   0.13   0.02  -0.00  -0.17  -0.03   0.00  -0.00  -0.00  -0.00  11.27  11.44
    121:    5.54   9.17   0.00   8.13   4.82   0.00   8.53   4.82   0.00   0.00   0.00   0.00   7.81  21.72
    122:   -0.02   0.16   0.00   0.10   0.06  -0.00  -0.13  -0.07   0.00  -0.00  -0.00  -0.00  11.28  32.28
    125:    0.00   0.00   0.00  -0.00   0.00   0.25  -0.00  -0.00   0.55   0.28   1.15   0.22   0.00   0.00
    127:    5.53   9.09   0.00   0.24  12.77   0.00   0.20  13.17   0.00   0.00  -0.00   0.00   7.81   3.55
    128:   -0.02   0.16  -0.00   0.00   0.16  -0.00  -0.00  -0.19  -0.00  -0.00   0.00  -0.00  11.27   5.28
    131:    0.00   0.00   0.00   0.00   0.00   0.25   0.00  -0.00   0.01   0.82   0.02   1.35   0.00   0.00
    133:    5.54   9.20   0.00  11.08   1.84   0.00  11.30   2.04   0.00   0.00   0.00   0.00   7.80   7.69
    134:   -0.02   0.16  -0.00   0.13   0.02  -0.00  -0.17  -0.03   0.00  -0.00  -0.00  -0.00  11.27  11.44
    139:    5.54   9.17   0.00   8.13   4.82   0.00   8.53   4.83   0.00   0.00   0.00   0.00   7.82  21.73
    140:   -0.02   0.16   0.00   0.10   0.06  -0.00  -0.13  -0.07   0.00  -0.00  -0.00  -0.00  11.29  32.28
    143:    0.00   0.00   0.00  -0.00   0.00   0.25  -0.00  -0.00   0.55   0.28   1.15   0.22   0.00   0.00
    145:    5.53   9.09   0.00   0.24  12.78   0.00   0.20  13.17   0.00   0.00  -0.00   0.00   7.81   3.55
    146:   -0.02   0.16  -0.00   0.00   0.16  -0.00  -0.00  -0.19  -0.00  -0.00   0.00  -0.00  11.27   5.27
    149:    0.00   0.00   0.00   0.00   0.00   0.25   0.00  -0.00   0.01   0.82   0.02   1.35   0.00   0.00


 Summation over all MOs, multiplied by occupation: Total SFO Gross Populations in this Irrep
 ===========================================================================================

     2.00    1.07   -0.01   -0.00   -0.00    0.84    0.07   -0.01    0.98   -0.02   -0.00    0.81
     0.03   -0.01    0.02    0.01    0.01    0.02    0.00    2.00    1.07   -0.01   -0.00   -0.00
     0.82    0.04   -0.01    0.98   -0.02   -0.00    0.83    0.06   -0.01    0.02    0.01    0.01
     0.02    0.01    2.00    1.07   -0.01   -0.00   -0.00    0.82    0.04   -0.01    0.98   -0.02
    -0.00    0.83    0.06   -0.01    0.02    0.01    0.01    0.02    0.01    2.00    1.07   -0.01
    -0.00   -0.00    0.84    0.07   -0.01    0.98   -0.02   -0.00    0.81    0.03   -0.01    0.02
     0.01    0.01    0.02    0.00    2.00    1.07   -0.01   -0.00   -0.00    0.82    0.04   -0.01
     0.98   -0.02   -0.00    0.83    0.06   -0.01    0.02    0.01    0.01    0.02    0.01    2.00
     1.07   -0.01   -0.00   -0.00    0.82    0.04   -0.01    0.98   -0.02   -0.00    0.83    0.06
    -0.01    0.02    0.01    0.01    0.02    0.01    1.11   -0.00   -0.00    0.03    0.02    0.02
     1.11   -0.00   -0.00    0.03    0.02    0.02    1.11   -0.00   -0.00    0.02    0.02    0.03
     1.11   -0.00   -0.00    0.03    0.02    0.02    1.11   -0.00   -0.00    0.03    0.02    0.02
     1.11   -0.00   -0.00    0.02    0.02    0.03



 List of all MOs, ordered by energy, with the most significant SFO gross populations
 ===================================================================================

 Each percentage contribution in the table below corresponds to the indicated SFO.
 In general, a SFO may be a linear combination of several Fragment Orbitals on the same,
 or on symmetry-related Fragments. Only the first 'member' of such a combination is
 specified here. A full definition of all SFOs is given in an earlier part of the output.
 The numbering of the SFOs in this table does NOT include the Core Orbitals, and starts
 from one for each symmetry representation, as in the SFO definition list earlier.

       E(eV)  Occ       MO           %     SFO (first member)   E(eV)  Occ   Fragment
 -------------------------------------------------------------------------------------

     -21.394  2.00     7 A         14.60%     2 S             -13.876  2.00     2 C
                                   14.60%     2 S             -13.876  2.00     5 C
                                   14.60%     2 S             -13.876  2.00     4 C
                                   14.60%     2 S             -13.876  2.00     1 C
                                   14.59%     2 S             -13.876  2.00     3 C
                                   14.59%     2 S             -13.876  2.00     6 C
                                    2.37%     1 P:z            -5.403  0.67     4 C
                                    2.37%     1 P:z            -5.403  0.67     1 C
                                    1.82%     1 P:x            -5.403  0.67     6 C
                                    1.82%     1 P:x            -5.403  0.67     3 C
                                    1.74%     1 P:x            -5.403  0.67     5 C
                                    1.74%     1 P:x            -5.403  0.67     2 C
                                    1.24%     1 S              -6.626  1.00     7 H
                                    1.24%     1 S              -6.626  1.00    10 H
                                    1.24%     1 S              -6.626  1.00     8 H
                                    1.24%     1 S              -6.626  1.00    11 H
                                    1.23%     1 S              -6.626  1.00     9 H
                                    1.23%     1 S              -6.626  1.00    12 H
     -18.622  2.00     8 A         20.78%     2 S             -13.876  2.00     5 C
                                   20.78%     2 S             -13.876  2.00     2 C
                                   12.87%     2 S             -13.876  2.00     6 C
                                   12.87%     2 S             -13.876  2.00     3 C
                                    5.51%     1 P:x            -5.403  0.67     4 C
                                    5.51%     1 P:x            -5.403  0.67     1 C
                                    5.12%     1 S              -6.626  1.00    10 H
                                    5.12%     1 S              -6.626  1.00     7 H
                                    3.17%     1 S              -6.626  1.00     8 H
                                    3.17%     1 S              -6.626  1.00    11 H
                                    2.37%     1 P:z            -5.403  0.67     6 C
                                    2.37%     1 P:z            -5.403  0.67     3 C
                                   -1.63%     2 P:x             4.709  0.00     4 C
                                   -1.63%     2 P:x             4.709  0.00     1 C
     -18.619  2.00     9 A         22.12%     2 S             -13.876  2.00     1 C
                                   22.12%     2 S             -13.876  2.00     4 C
                                   10.19%     2 S             -13.876  2.00     3 C
                                   10.19%     2 S             -13.876  2.00     6 C
                                    5.45%     1 S              -6.626  1.00    12 H
                                    5.45%     1 S              -6.626  1.00     9 H
                                    3.49%     1 P:z            -5.403  0.67     2 C
                                    3.49%     1 P:z            -5.403  0.67     5 C
                                    2.51%     1 S              -6.626  1.00     8 H
[...]
 iter.  9 V(1) measure  0.8938955159128E+05
        9        delta  0.3579724905285E+00
 CRIT  2.385465905272601E-002
 iter. 10 V(1) measure  0.8938949963473E+05
       10        delta  0.5195655373973E-01
 *** convergence reached

    RRIJmat_z_z         
    using first order VWN potential
 
    NOTE: We will NOT use the GGA kernel (input option ALDA was set)
 
 CRIT   1.00000000000000     
 iter.  1 V(1) measure  0.1302533220131E+04
 *** convergence criterion : .1302533E-02
 CRIT   158.659340953829     
 iter.  2 V(1) measure  0.1073540447836E+04
        2        delta  0.2289927722949E+03
 CRIT   60.0752752951270     
 iter.  3 V(1) measure  0.1108582848842E+04
        3        delta  0.3504240100610E+02
 CRIT   10.7349953793055     
 iter.  4 V(1) measure  0.1112648136112E+04
        4        delta  0.4065287269887E+01
 CRIT   8.32530395515676     
 iter.  5 V(1) measure  0.1115196605245E+04
        5        delta  0.2548469133061E+01
 CRIT   2.16081692216496     
 iter.  6 V(1) measure  0.1115636924999E+04
        6        delta  0.4403197537047E+00
 CRIT  0.879439876830362     
 iter.  7 V(1) measure  0.1115749364711E+04
        7        delta  0.1124397123122E+00
 CRIT  0.649232462465338     
 iter.  8 V(1) measure  0.1115752709780E+04
        8        delta  0.3345069320176E-02
 CRIT  7.029813341372601E-002
 iter.  9 V(1) measure  0.1115750246312E+04
        9        delta  0.2463468022597E-02
 CRIT  4.865226815365468E-002
 iter. 10 V(1) measure  0.1115748566315E+04
       10        delta  0.1679997468045E-02
 CRIT  7.521700488159219E-003
 iter. 11 V(1) measure  0.1115748895488E+04
       11        delta  0.3291730592991E-03
 *** convergence reached
 ------------------------------------------
 Convergence acceleration: T
 QUADRUPOLE-QUADRUPOLE POLARIZABILITY     
 Frequency  =  0.1322975682     Hartrees
 Wavelength =   344.4005294     nm
 Wavenumber =   29035.96001     cm^{-1}
 Energy     =   3.600000000     eV
 ------------------------------------------
 QUADRUPOLE-QUADRUPOLE Polarizability tensor:
 
 xx xx     4188.86260588271     
 xx xy    -1.52414244294683     
 xx xz   -0.194321012834353     
 xx yy    -4991.66809218174     
 xx yz   -0.159676230201378     
 xx zz     802.805486299039     
 xy xx    -1.51330230097941     
 xy xy     12591.5774070168     
 xy xz   -0.128757746653391     
 xy yy     2.82012247256397     
 xy yz   -0.669927361314115     
 xy zz    -1.30682017159206     
 xz xx   -0.194754080242267     
 xz xy   -0.129224794070161     
 xz xz     1693.66733985295     
 xz yy    0.148318552812610     
 xz yz   -0.200393437413218     
 xz zz    4.643552742505666E-002
 yy xx    -4991.68042313246     
 yy xy     2.84142612543299     
 yy xz    0.143592736303135     
 yy yy     9983.67517147237     
 yy yz    0.280182489783830     
 yy zz    -4991.99474833987     
 yz xx   -0.158908306136588     
 yz xy   -0.702025967927136     
 yz xz   -0.196190084968891     
 yz yy    0.278676368699279     
 yz yz     12590.9354428097     
 yz zz   -0.119768062578884     
 zz xx     802.815785782636     
 zz xy    -1.31465338715150     
 zz xz    5.270206244365726E-002
 zz yy    -4991.98454080846     
 zz yz   -0.120682085709724     
 zz zz     4189.16875502583     
 
 Imaginary QUADRUPOLE-QUADRUPOLE Polarizability tensor:
 
 xx xx     18.7028991987578     
 xx xy   -6.929304976147167E-002
 xx xz   -1.859775371548194E-003
 xx yy    -21.5499480819526     
 xx yz   -8.661341654124459E-003
 xx zz     2.84704888319456     
 xy xx   -6.918209718388879E-002
 xy xy     124.986971911066     
 xy xz   -3.439261966898223E-004
 xy yy    0.158179803907449     
 xy yz    5.656888170558239E-004
 xy zz   -8.899770672321536E-002
 xz xx   -1.700587095126294E-003
 xz xy   -4.612934143144546E-004
 xz xz     7.93273516610433     
 xz yy    1.207796485820693E-003
 xz yz    9.230775606289883E-003
 xz zz    4.927906092958028E-004
 yy xx    -21.5314041836073     
 yy xy    0.158359772547852     
 yy xz    1.393238114418704E-003
 yy yy     43.0677279232981     
 yy yz    1.480705614363511E-002
 yy zz    -21.5363237396905     
 yz xx   -8.733726008737192E-003
 yz xy    5.989363559717146E-004
 yz xz    9.241791962873353E-003
 yz yy    1.459971767034535E-002
 yz yz     124.959617377663     
 yz zz   -5.865991661580188E-003
 zz xx     2.84673049162242     
 zz xy   -8.918926185658134E-002
 zz xz    5.980000448283621E-004
 zz yy    -21.5531688670631     
 zz yz   -5.712613696069942E-003
 zz zz     18.7064383754408     



 =======================================================================
 Electrostatic potential at the Nuclei due to electrons and other nuclei
 =======================================================================
  
         Atom                  Potential
         ----                  ---------
     1)   C                  14.76889604
     2)   C                  14.76879410
     3)   C                  14.76875147
     4)   C                  14.76889705
     5)   C                  14.76879278
     6)   C                  14.76873911
     7)   H                   1.10109472
     8)   H                   1.10118370
     9)   H                   1.10157683
    10)   H                   1.10109465
    11)   H                   1.10117232
    12)   H                   1.10157710
 
 
 ========================
 No memory problems found
 ========================
 
 Maximum number of active allocate calls:        1279
 
 *******************************************************************************

                             A D F   E X I T
 NORMAL TERMINATION



 =================
 Timing Statistics
 =================
  
 Total Used :                     CPU=       46.37      System=        0.76     Elapsed=       47.89

 Calls  Section                     ( Mean, Percentage )
 ---------------------------------------------------------------------------------------------------
     3  ><      ................      0.00    0.01             0.00    0.00             0.00    0.01
     1  INIT    ................      0.56    1.20             0.00    0.37             0.56    1.17
     1  GEOMET  ................      0.04    0.08             0.01    1.48             0.05    0.10
     1  FRAGM   ................      0.03    0.06             0.00    0.52             0.03    0.07
     1  INPUTA  ................      0.00    0.01             0.00    0.00             0.00    0.01
     1  ATDEN   ................      0.00    0.01             0.00    0.00             0.00    0.01
     1  MAINSY  ................      0.02    0.05             0.01    1.55             0.03    0.07
     1  SYMFIT  ................      0.01    0.02             0.00    0.01             0.01    0.02
     1  CORORT  ................      0.00    0.00             0.00    0.01             0.00    0.00
     1  SYMORB  ................      0.00    0.01             0.00    0.00             0.00    0.01
     1  CLSMAT  ................      0.01    0.02             0.00    0.00             0.01    0.02
     1  ORTHON  ................      0.02    0.03             0.00    0.00             0.02    0.03
     1  GENPT   ................      0.12    0.25             0.01    1.05             0.13    0.26
     1  PTBAS   ................      0.08    0.17             0.00    0.52             0.09    0.18
    13  FOCKY   ................      0.34    9.65             0.00    7.28             0.35    9.50
    13  FOCKTR  ................      0.00    0.09             0.00    0.00             0.00    0.09
    13  SDIIS   ................      0.00    0.14             0.00    0.01             0.00    0.13
     1  COREPS  ................      0.28    0.60             0.00    0.00             0.28    0.58
     1  TOTEN   ................      1.17    2.52             0.02    3.15             1.19    2.49
     1  POPAN   ................      0.01    0.01             0.00    0.00             0.01    0.01
     1  DEBYE   ................      0.02    0.03             0.00    0.00             0.02    0.03
     1  INPUTE  ................      0.00    0.00             0.00    0.04             0.00    0.00
     1  SYMORE  ................      0.00    0.00             0.00    0.23             0.00    0.00
     1  METS    ................      0.00    0.00             0.00    0.21             0.00    0.00
     1  CETS    ................      0.01    0.01             0.00    0.56             0.01    0.02
     1  ELNRGY  ................      0.01    0.03             0.00    0.52             0.02    0.03
     1  POPUL   ................      0.01    0.03             0.00    0.00             0.01    0.03
     1  AORESPONSE .............     39.37   84.90             0.62   81.95            40.73   85.03
     1  EXIT PROCEDURE .........      0.03    0.06             0.00    0.52             0.03    0.06


 Currently Open Files (EXIT00)
 ====================

 Unit    Access Format  Status   Type       Ident (file)
 -------------------------------------------------------
   3      SEQ    FORM   TRANSP  NORMAL      LOGFILE
                                          ( logfile )

 ***************************************************************************************************
 (LOGFILE)
 <Sep29-2020> <15:33:39>  ADF 2019  RunTime: Sep29-2020 15:33:39  Nodes: 1  Procs: 1
 <Sep29-2020> <15:33:39>  Hydrogen (TZP)
 <Sep29-2020> <15:33:39>  RunType   : CREATE
 <Sep29-2020> <15:33:39>  Net Charge: 0 (Nuclei minus Electrons)
 <Sep29-2020> <15:33:39>  Symmetry  : ATOM
  Coordinates
    Atom         X           Y           Z   (Angstrom)
    1.H         0.000000    0.000000    0.000000
 <Sep29-2020> <15:33:39>  >>>> CORORT
 <Sep29-2020> <15:33:39>  >>>> CLSMAT
 <Sep29-2020> <15:33:39>  >>>> ORTHON
 <Sep29-2020> <15:33:39>  >>>> GENPT
 <Sep29-2020> <15:33:39>  Block Length=  64
 <Sep29-2020> <15:33:39>  >>>> PTBAS
 <Sep29-2020> <15:33:39>  >>>> CYCLE
 <Sep29-2020> <15:33:39>              |Error|         MaxErr       Wt(A-DIIS)
 <Sep29-2020> <15:33:39>      1      0.00000000      0.00000000
 <Sep29-2020> <15:33:39>      2      0.03052909      0.02968459
 <Sep29-2020> <15:33:39>      3      0.00718138      0.00670742    100.0
 <Sep29-2020> <15:33:40>      4      0.00117303      0.00114116      0.1
 <Sep29-2020> <15:33:40>      5      0.00002783      0.00002380      0.0
 <Sep29-2020> <15:33:40>      6      0.00000153      0.00000130      0.0
 <Sep29-2020> <15:33:40>      7      0.00000000      0.00000000      0.0
 <Sep29-2020> <15:33:40>  SCF converged
 <Sep29-2020> <15:33:40>      8      0.00000000      0.00000000      0.0
 <Sep29-2020> <15:33:40>  >>>> POPAN
 <Sep29-2020> <15:33:40>  >>>> DEBYE
 <Sep29-2020> <15:33:40>  NORMAL TERMINATION
 <Sep29-2020> <15:33:40>  END
 <Sep29-2020> <15:33:40>  ADF 2019  RunTime: Sep29-2020 15:33:40  Nodes: 1  Procs: 1
 <Sep29-2020> <15:33:40>  Carbon (TZP)
 <Sep29-2020> <15:33:40>  RunType   : CREATE
 <Sep29-2020> <15:33:40>  Net Charge: 0 (Nuclei minus Electrons)
 <Sep29-2020> <15:33:40>  Symmetry  : ATOM
  Coordinates
    Atom         X           Y           Z   (Angstrom)
    1.C         0.000000    0.000000    0.000000
 <Sep29-2020> <15:33:40>  >>>> CORORT
 <Sep29-2020> <15:33:40>  >>>> CLSMAT
 <Sep29-2020> <15:33:40>  >>>> ORTHON
 <Sep29-2020> <15:33:40>  >>>> GENPT
 <Sep29-2020> <15:33:40>  Block Length=  72
 <Sep29-2020> <15:33:40>  >>>> PTBAS
 <Sep29-2020> <15:33:40>  >>>> CYCLE
 <Sep29-2020> <15:33:40>              |Error|         MaxErr       Wt(A-DIIS)
 <Sep29-2020> <15:33:40>      1      0.00000000      0.00000000
 <Sep29-2020> <15:33:40>      2      4.48324754      3.31969244    100.0
 <Sep29-2020> <15:33:40>      3      1.61537707      1.30410194    100.0
 <Sep29-2020> <15:33:40>      4      0.72706284      0.59053131    100.0
 <Sep29-2020> <15:33:40>      5      0.40898688      0.33263800    100.0
 <Sep29-2020> <15:33:40>      6      0.13548919      0.10594416    100.0
 <Sep29-2020> <15:33:40>      7      0.11406432      0.09088019     90.8
 <Sep29-2020> <15:33:40>      8      0.01170325      0.00926551      8.3
 <Sep29-2020> <15:33:40>      9      0.00078015      0.00061791      0.0
 <Sep29-2020> <15:33:41>     10      0.00000178      0.00000107      0.0
 <Sep29-2020> <15:33:41>     11      0.00000024      0.00000019      0.0
 <Sep29-2020> <15:33:41>     12      0.00000000      0.00000000      0.0
 <Sep29-2020> <15:33:41>  SCF converged
 <Sep29-2020> <15:33:41>     13      0.00000000      0.00000000      0.0
 <Sep29-2020> <15:33:41>  >>>> POPAN
 <Sep29-2020> <15:33:41>  >>>> DEBYE
 <Sep29-2020> <15:33:41>  NORMAL TERMINATION
 <Sep29-2020> <15:33:41>  END
 <Sep29-2020> <15:33:41>  ADF 2019  RunTime: Sep29-2020 15:33:41  Nodes: 1  Procs: 6
 <Sep29-2020> <15:33:41>  None
 <Sep29-2020> <15:33:41>  RunType   : SINGLE POINT
 <Sep29-2020> <15:33:42>  Net Charge: 0 (Nuclei minus Electrons)
 <Sep29-2020> <15:33:42>  Symmetry  : NOSYM
 <Sep29-2020> <15:33:42>  >>>> FRAGM
  Coordinates
    Atom         X           Y           Z   (Angstrom)
    1.C         0.029700    3.999968   -1.398600
    2.C        -1.197000    3.999592   -0.725300
    3.C        -1.226700    3.999624    0.673700
    4.C        -0.029700    4.000032    1.398600
    5.C         1.197000    4.000408    0.725300
    6.C         1.226700    4.000376   -0.673700
    7.H        -2.130100    4.002715   -1.291500
    8.H        -2.183100    4.002503    1.199800
    9.H        -0.053000    3.999794    2.490100
   10.H         2.130100    3.997285    1.291500
   11.H         2.183200    3.997491   -1.199800
   12.H         0.052900    4.000206   -2.490100
 <Sep29-2020> <15:33:42>  >>>> CORORT
 <Sep29-2020> <15:33:42>  >>>> CLSMAT
 <Sep29-2020> <15:33:42>  >>>> ORTHON
 <Sep29-2020> <15:33:42>  >>>> GENPT
 <Sep29-2020> <15:33:42>  Block Length= 128
 <Sep29-2020> <15:33:42>  >>>> PTBAS
 <Sep29-2020> <15:33:42>  >>>> CYCLE
 <Sep29-2020> <15:33:42>              |Error|         MaxErr       Wt(A-DIIS)
 <Sep29-2020> <15:33:42>      1      5.99092360      0.98027161
 <Sep29-2020> <15:33:43>      2      0.89232248      0.18709998    100.0
 <Sep29-2020> <15:33:43>      3      0.52145148      0.10260541    100.0
 <Sep29-2020> <15:33:43>      4      0.74324965      0.17265075    100.0
 <Sep29-2020> <15:33:44>      5      0.07622382      0.01072996      9.8
 <Sep29-2020> <15:33:44>      6      0.01070933      0.00169566      0.7
 <Sep29-2020> <15:33:44>      7      0.00113636      0.00027163      0.0
 <Sep29-2020> <15:33:45>      8      0.00033077      0.00008096      0.0
 <Sep29-2020> <15:33:45>      9      0.00015833      0.00004003      0.0
 <Sep29-2020> <15:33:45>     10      0.00000775      0.00000191      0.0
 <Sep29-2020> <15:33:46>     11      0.00000802      0.00000208      0.0
 <Sep29-2020> <15:33:46>     12      0.00000011      0.00000001      0.0
 <Sep29-2020> <15:33:46>  SCF converged
 <Sep29-2020> <15:33:47>     13      0.00000007      0.00000001      0.0
 <Sep29-2020> <15:33:47>  >>>> TOTEN
 <Sep29-2020> <15:33:48>  >>>> POPAN
 <Sep29-2020> <15:33:48>  >>>> DEBYE
 <Sep29-2020> <15:33:48>  >>>> AMETS
 <Sep29-2020> <15:33:48>  >>>> POPUL
 <Sep29-2020> <15:33:49>     1 V(1)  0.1844061E+04
 <Sep29-2020> <15:33:49>     2 V(1)  0.1574280E+04
 <Sep29-2020> <15:33:49>     3 V(1)  0.1556977E+04
 <Sep29-2020> <15:33:50>     4 V(1)  0.1563531E+04
 <Sep29-2020> <15:33:50>     5 V(1)  0.1565488E+04
 <Sep29-2020> <15:33:51>     6 V(1)  0.1565363E+04
 <Sep29-2020> <15:33:51>     7 V(1)  0.1565313E+04
 <Sep29-2020> <15:33:52>     8 V(1)  0.1565308E+04
 <Sep29-2020> <15:33:52>     9 V(1)  0.1565302E+04
 <Sep29-2020> <15:33:53>    10 V(1)  0.1565302E+04
 <Sep29-2020> <15:33:53>   convergence reached
 <Sep29-2020> <15:33:53>     1 V(1)  0.2536704E+02
 <Sep29-2020> <15:33:54>     2 V(1)  0.2327278E+02
 <Sep29-2020> <15:33:54>     3 V(1)  0.2328854E+02
 <Sep29-2020> <15:33:55>     4 V(1)  0.2328542E+02
 <Sep29-2020> <15:33:55>     5 V(1)  0.2328556E+02
 <Sep29-2020> <15:33:55>     6 V(1)  0.2328510E+02
 <Sep29-2020> <15:33:56>     7 V(1)  0.2328509E+02
 <Sep29-2020> <15:33:56>   convergence reached
 <Sep29-2020> <15:33:56>     1 V(1)  0.1841871E+04
 <Sep29-2020> <15:33:57>     2 V(1)  0.1572304E+04
 <Sep29-2020> <15:33:57>     3 V(1)  0.1555049E+04
 <Sep29-2020> <15:33:58>     4 V(1)  0.1561592E+04
 <Sep29-2020> <15:33:58>     5 V(1)  0.1563547E+04
 <Sep29-2020> <15:33:59>     6 V(1)  0.1563433E+04
 <Sep29-2020> <15:33:59>     7 V(1)  0.1563374E+04
 <Sep29-2020> <15:33:59>     8 V(1)  0.1563368E+04
 <Sep29-2020> <15:34:00>     9 V(1)  0.1563363E+04
 <Sep29-2020> <15:34:00>    10 V(1)  0.1563362E+04
 <Sep29-2020> <15:34:00>   convergence reached
 <Sep29-2020> <15:34:01>     1 V(1)  0.1302871E+04
 <Sep29-2020> <15:34:01>     2 V(1)  0.1073717E+04
 <Sep29-2020> <15:34:02>     3 V(1)  0.1108768E+04
 <Sep29-2020> <15:34:02>     4 V(1)  0.1112829E+04
 <Sep29-2020> <15:34:03>     5 V(1)  0.1115386E+04
 <Sep29-2020> <15:34:03>     6 V(1)  0.1115824E+04
 <Sep29-2020> <15:34:03>     7 V(1)  0.1115937E+04
 <Sep29-2020> <15:34:04>     8 V(1)  0.1115940E+04
 <Sep29-2020> <15:34:04>     9 V(1)  0.1115938E+04
 <Sep29-2020> <15:34:05>    10 V(1)  0.1115936E+04
 <Sep29-2020> <15:34:05>    11 V(1)  0.1115936E+04
 <Sep29-2020> <15:34:05>   convergence reached
 <Sep29-2020> <15:34:06>     1 V(1)  0.1057886E+06
 <Sep29-2020> <15:34:06>     2 V(1)  0.8966268E+05
 <Sep29-2020> <15:34:07>     3 V(1)  0.8876716E+05
 <Sep29-2020> <15:34:07>     4 V(1)  0.8939341E+05
 <Sep29-2020> <15:34:08>     5 V(1)  0.8951230E+05
 <Sep29-2020> <15:34:08>     6 V(1)  0.8950410E+05
 <Sep29-2020> <15:34:09>     7 V(1)  0.8950114E+05
 <Sep29-2020> <15:34:09>     8 V(1)  0.8950072E+05
 <Sep29-2020> <15:34:09>     9 V(1)  0.8950038E+05
 <Sep29-2020> <15:34:10>    10 V(1)  0.8950033E+05
 <Sep29-2020> <15:34:10>   convergence reached
 <Sep29-2020> <15:34:10>     1 V(1)  0.6150840E+03
 <Sep29-2020> <15:34:11>     2 V(1)  0.4702689E+03
 <Sep29-2020> <15:34:11>     3 V(1)  0.4843120E+03
 <Sep29-2020> <15:34:12>     4 V(1)  0.4854904E+03
 <Sep29-2020> <15:34:12>     5 V(1)  0.4860143E+03
 <Sep29-2020> <15:34:13>     6 V(1)  0.4860219E+03
 <Sep29-2020> <15:34:13>     7 V(1)  0.4860238E+03
 <Sep29-2020> <15:34:13>     8 V(1)  0.4860226E+03
 <Sep29-2020> <15:34:14>     9 V(1)  0.4860216E+03
 <Sep29-2020> <15:34:15>    10 V(1)  0.4860214E+03
 <Sep29-2020> <15:34:15>   convergence reached
 <Sep29-2020> <15:34:15>     1 V(1)  0.2749216E+04
 <Sep29-2020> <15:34:16>     2 V(1)  0.2506081E+04
 <Sep29-2020> <15:34:16>     3 V(1)  0.2518029E+04
 <Sep29-2020> <15:34:16>     4 V(1)  0.2520536E+04
 <Sep29-2020> <15:34:17>     5 V(1)  0.2520742E+04
 <Sep29-2020> <15:34:17>     6 V(1)  0.2520788E+04
 <Sep29-2020> <15:34:18>     7 V(1)  0.2520784E+04
 <Sep29-2020> <15:34:18>     8 V(1)  0.2520782E+04
 <Sep29-2020> <15:34:18>   convergence reached
 <Sep29-2020> <15:34:19>     1 V(1)  0.1056633E+06
 <Sep29-2020> <15:34:19>     2 V(1)  0.8955011E+05
 <Sep29-2020> <15:34:20>     3 V(1)  0.8865728E+05
 <Sep29-2020> <15:34:20>     4 V(1)  0.8928264E+05
 <Sep29-2020> <15:34:21>     5 V(1)  0.8940143E+05
 <Sep29-2020> <15:34:21>     6 V(1)  0.8939377E+05
 <Sep29-2020> <15:34:22>     7 V(1)  0.8939035E+05
 <Sep29-2020> <15:34:22>     8 V(1)  0.8938991E+05
 <Sep29-2020> <15:34:23>     9 V(1)  0.8938955E+05
 <Sep29-2020> <15:34:23>    10 V(1)  0.8938950E+05
 <Sep29-2020> <15:34:23>   convergence reached
 <Sep29-2020> <15:34:23>     1 V(1)  0.1302533E+04
 <Sep29-2020> <15:34:24>     2 V(1)  0.1073540E+04
 <Sep29-2020> <15:34:24>     3 V(1)  0.1108583E+04
 <Sep29-2020> <15:34:25>     4 V(1)  0.1112648E+04
 <Sep29-2020> <15:34:25>     5 V(1)  0.1115197E+04
 <Sep29-2020> <15:34:26>     6 V(1)  0.1115637E+04
 <Sep29-2020> <15:34:26>     7 V(1)  0.1115749E+04
 <Sep29-2020> <15:34:27>     8 V(1)  0.1115753E+04
 <Sep29-2020> <15:34:28>     9 V(1)  0.1115750E+04
 <Sep29-2020> <15:34:28>    10 V(1)  0.1115749E+04
 <Sep29-2020> <15:34:29>    11 V(1)  0.1115749E+04
 <Sep29-2020> <15:34:29>   convergence reached
 <Sep29-2020> <15:34:29>  NORMAL TERMINATION
 <Sep29-2020> <15:34:29>  END
