

 Parallel Execution: Process Information
 ==============================================================================
 Rank   Node Name                              NodeID   MyNodeRank  NodeMaster
    0   magnesium.science.psu.edu                 0          0          0
    1   magnesium.science.psu.edu                 0          1         -1
    2   magnesium.science.psu.edu                 0          2         -1
    3   magnesium.science.psu.edu                 0          3         -1
    4   magnesium.science.psu.edu                 0          4         -1
    5   magnesium.science.psu.edu                 0          5         -1
 ==============================================================================


May use up to 7495MB of RAM as shared memory on node 0
 
TITLE None

ATOMS
1  C     0.02891160    4.00000000   -1.39858413
2  C    -1.19679364    4.00000000   -0.72477088
3  C    -1.22654655    4.00000000    0.67311796
4  C    -0.03048840    4.00000000    1.39861587
5  C     1.19720636    4.00000000    0.72582912
6  C     1.22685345    4.00000000   -0.67428204
7  H    -2.12899413    4.00000000   -1.29228310
8  H    -2.18189889    4.00000000    1.20094291
9  H    -0.05015331    4.00000000    2.49020053
10 H     2.13120587    4.00000000    1.29072219
11 H     2.18440111    4.00000000   -1.19865709
12 H     0.05574669    4.00000000   -2.48999947
END

XC
 gga BP86
end

symmetry nosym

aoresponse
 alda
 frequency 1 3.6 eV
 lifetime 0.0037
 El_Dipole_El_Dipole
 El_Dipole_El_Quadrupole
 El_Quadrupole_El_Quadrupole
 Traceless
end

Fragments
H t21.H
C t21.C
End

 *******************************************************************************
 *                                                                             *
 *  -------------------------------------                                      *
 *   Amsterdam Density Functional  (ADF)         2019                          *
 *  -------------------------------------                                      *
 *                                               r75281 2019-06-03             *
 *                                                                             *
 *                                                                             *
 *                              =================                              *
 *                              |               |                              *
 *                              |     A D F     |                              *
 *                              |               |                              *
 *                              =================                              *
 *                                                                             *
 *                                                                             *
 *   Online information and documentation:  https://www.scm.com/support/       *
 *   E-mail:  support@scm.com   info@scm.com                                   *
 *                                                                             *
 *   Scientific publications using ADF results must be properly referenced     *
 *   See the User Manuals (or the web site) for recommended citations          *
 *   The terms and conditions of the End User License Agreement apply to       *
 *   the use of ADF, https://www.scm.com/license-terms/                        *
 *                                                                             *
 **********************  x86_64_linux_intel / intelmpi  ************************
 
 Licensed to: Prof. Lasse Jensen / Penn State University / University Park / PA  / USA
 SCM User ID: u8493
  
 ADF 2019  RunTime: Sep29-2020 15:22:14  Nodes: 1  Procs: 6

 Temporary files are created in /scratch/kid_0.2074485430


Communication costs MPI_COMM_WORLD:      0.574 usec per message,   0.0076 usec per 8-byte item
Communication costs for intra-node:      0.560 usec per message,   0.0074 usec per 8-byte item

 None



 ===========================
 A T T A C H E D   F I L E S
 ===========================
  



 ===============================
 M O D E L   P A R A M E T E R S
 ===============================
  
 DENSITY FUNCTIONAL POTENTIAL (scf)
    LDA:                               VWN                                      
    Gradient Corrections:              Becke88 Perdew86                        == Not Default ==

 SPIN  (restricted / unrestr.)
    Molecule:                          Restricted                               
    Fragments:                         Restricted                               

 OTHER ASPECTS
    Relativistic Corrections:          ---                                      

    Nuclear Charge Density Model:      Point Charge Nuclei                      
    Core Treatment:                    Frozen Orbital(s)                        

    Hyperfine or Zeeman Interaction:   ---                                      


 Fragment File(s)
 ----------------
 C:
         file : t21.C
         jobid: ADF 2019  RunTime: Sep29-2020 15:22:13  Nodes: 1  Procs: 1
         title: Carbon (TZP)
 H:
         file : t21.H
         jobid: ADF 2019  RunTime: Sep29-2020 15:22:13  Nodes: 1  Procs: 1
         title: Hydrogen (TZP)



                                        ************************************
                                        *  R U N   T Y P E : SINGLE POINT  *
                                        ************************************
  



 ===============
 G E O M E T R Y  ***  Planar Molecule  ***
 ===============
  

 ATOMS
 =====                            X Y Z                    CHARGE
                                (Angstrom)             Nucl     +Core       At.Mass
                       --------------------------    ----------------       -------
    1  C               0.0289    4.0000   -1.3986      6.00      6.00       12.0000
    2  C              -1.1968    4.0000   -0.7248      6.00      6.00       12.0000
    3  C              -1.2265    4.0000    0.6731      6.00      6.00       12.0000
    4  C              -0.0305    4.0000    1.3986      6.00      6.00       12.0000
    5  C               1.1972    4.0000    0.7258      6.00      6.00       12.0000
    6  C               1.2269    4.0000   -0.6743      6.00      6.00       12.0000
    7  H              -2.1290    4.0000   -1.2923      1.00      1.00        1.0078
    8  H              -2.1819    4.0000    1.2009      1.00      1.00        1.0078
    9  H              -0.0502    4.0000    2.4902      1.00      1.00        1.0078
   10  H               2.1312    4.0000    1.2907      1.00      1.00        1.0078
   11  H               2.1844    4.0000   -1.1987      1.00      1.00        1.0078
   12  H               0.0557    4.0000   -2.4900      1.00      1.00        1.0078


 FRAGMENTS
 =========                                     Atoms in this Fragment     Cart. coord.s (Angstrom)
                                               -------------------------------------------------------
    1  C                                                 1  C            0.0289    4.0000   -1.3986
    2  C                                                 2  C           -1.1968    4.0000   -0.7248
    3  C                                                 3  C           -1.2265    4.0000    0.6731
    4  C                                                 4  C           -0.0305    4.0000    1.3986
    5  C                                                 5  C            1.1972    4.0000    0.7258
    6  C                                                 6  C            1.2269    4.0000   -0.6743
    7  H                                                 7  H           -2.1290    4.0000   -1.2923
    8  H                                                 8  H           -2.1819    4.0000    1.2009
    9  H                                                 9  H           -0.0502    4.0000    2.4902
   10  H                                                10  H            2.1312    4.0000    1.2907
   11  H                                                11  H            2.1844    4.0000   -1.1987
   12  H                                                12  H            0.0557    4.0000   -2.4900


 Interatomic Distance Matrix (Angstrom)
 --------------------------------------

   1)     0.000
   2)     1.399   0.000
   3)     2.422   1.398   0.000
   4)     2.798   2.423   1.399   0.000
   5)     2.424   2.799   2.424   1.400   0.000
   6)     1.400   2.424   2.799   2.424   1.400   0.000
   7)     2.161   1.091   2.163   3.412   3.891   3.412   0.000
   8)     3.413   2.163   1.091   2.160   3.412   3.891   2.494   0.000
   9)     3.890   3.413   2.165   1.092   2.161   3.412   4.316   2.491   0.000
  10)     3.414   3.891   3.414   2.164   1.092   2.163   4.982   4.314   2.489   0.000
  11)     2.165   3.414   3.891   3.413   2.163   1.092   4.314   4.982   4.313   2.490
          0.000
  12)     1.092   2.164   3.413   3.890   3.412   2.161   2.492   4.316   4.981   4.313
          2.490   0.000

 Min. Distance =    1.0914
 Max. Distance =    4.9822



 =====================================
 S Y M M E T R Y ,   E L E C T R O N S
 =====================================
  
 Symmetry: NOSYM

 Irreducible Representations, including subspecies
 -------------------------------------------------
 A


 Configuration of Valence Electrons
 ==================================
 ( determined in the SCF procedure )

 Total:   42

 Net Charge: 0 (Nuclei minus Electrons)

 Aufbau principle for MO occupations will be applied through SCF cycle no.     150
 Thereafter, the program will assign electrons to MOs that are spatially
 similar to the occupied MOs in a "reference" cycle ("KeepOrbitals").
 The reference cycle is always the PREVIOUS cycle: it will evolve with
 the SCF procedure.
1
 ***************************************************************************************************



                                      ****************************************
                                      *  B U I L D : (Fragments, Functions)  *
                                      ****************************************
  



 =======
 S F O s  ***  (Symmetrized Fragment Orbitals)  ***
 =======
  
 SFOs are linear combinations of (valence) Fragment Orbitals (FOs), such that the SFOs transform as the
 irreducible representations of the (molecular) symmetry group. Each SFO is therefore characterized by
 an irrep of the molecule and by a few (or only one) generating FOs.
 The SFOs constitute a symmetry-adapted basis for the Fock matrix. The MO eigenvector coefficients in
 this basis provide a direct interpretation of the MOs in terms of Frontier Orbital Theory.

 The SFOs are combined with auxiliary Core Functions (CFs) to ensure orthogonalization on the (frozen)
 Core Orbitals (COs). The Core-orthogonalized SFOs (CSFOs) constitute the true Fock basis.

 The FOs, and hence also the (C)SFOs are combinations of the elementary basis functions (BAS). The basis
 functions that participate in the description of the SFOs depend on the irrep. The indices of the
 involved functions are printed below for each irrep.
 (The complete list of primitive basis functions is printed in another section)

 Total nr. of (C)SFOs (summation over all irreps) :   150

 NOTE: a (C)SFO that is defined as a combination of more than one FO is usually NOT normalized.



                                       === A ===
 Nr. of SFOs :  150
 Cartesian basis functions that participate in this irrep (total number =   156) :
      1     2     3     4     5     6     9    12     7    10
     13     8    11    14    15    16    17    18    19    20
     21    22    23    24    25    26    29    32    27    30
     33    28    31    34    35    36    37    38    39    40
     41    42    43    44    45    46    49    52    47    50
     53    48    51    54    55    56    57    58    59    60
     61    62    63    64    65    66    69    72    67    70
     73    68    71    74    75    76    77    78    79    80
     81    82    83    84    85    86    89    92    87    90
     93    88    91    94    95    96    97    98    99   100
    101   102   103   104   105   106   109   112   107   110
    113   108   111   114   115   116   117   118   119   120
    121   122   123   124   125   126   127   128   129   130
    131   132   133   134   135   136   137   138   139   140
    141   142   143   144   145   146   147   148   149   150
    151   152   153   154   155   156

    SFO  (index         Fragment          Generating    Expansion in Fragment Orbitals
  indx  incl.CFs)   Occup   Orb.Energy   FragmentType  Coeff.   Orbital     on Fragment
 --------------------------------------------------------------------------------------
     1       1      2.000     -10.058 au  C             1.00      1 S               1
                        (    -273.681 eV)
     2       2      2.000      -0.510 au  C             1.00      2 S               1
                        (     -13.876 eV)
     3       3       --         0.371 au  C             1.00      3 S               1
                        (      10.091 eV)
     4       4       --         5.428 au  C             1.00      4 S               1
                        (     147.707 eV)
     5       5       --        50.181 au  C             1.00      5 S               1
                        (    1365.486 eV)
     6       6      0.667      -0.199 au  C             1.00      1 P:x             1
                        (      -5.403 eV)
     7       7       --         0.173 au  C             1.00      2 P:x             1
                        (       4.709 eV)
     8       8       --         2.026 au  C             1.00      3 P:x             1
                        (      55.143 eV)
     9       9      0.667      -0.199 au  C             1.00      1 P:y             1
                        (      -5.403 eV)
    10      10       --         0.173 au  C             1.00      2 P:y             1
                        (       4.709 eV)
    11      11       --         2.026 au  C             1.00      3 P:y             1
                        (      55.143 eV)
    12      12      0.667      -0.199 au  C             1.00      1 P:z             1
                        (      -5.403 eV)
    13      13       --         0.173 au  C             1.00      2 P:z             1
                        (       4.709 eV)
    14      14       --         2.026 au  C             1.00      3 P:z             1
                        (      55.143 eV)
    15      15       --         1.232 au  C             1.00      1 D:z2            1
                        (      33.528 eV)
    16      16       --         1.232 au  C             1.00      1 D:x2-y2         1
                        (      33.528 eV)
    17      17       --         1.232 au  C             1.00      1 D:xy            1
                        (      33.528 eV)
    18      18       --         1.232 au  C             1.00      1 D:xz            1
                        (      33.528 eV)
    19      19       --         1.232 au  C             1.00      1 D:yz            1
                        (      33.528 eV)
    20      20      2.000     -10.058 au  C             1.00      1 S               2
                        (    -273.681 eV)
    21      21      2.000      -0.510 au  C             1.00      2 S               2
                        (     -13.876 eV)
    22      22       --         0.371 au  C             1.00      3 S               2
                        (      10.091 eV)
    23      23       --         5.428 au  C             1.00      4 S               2
                        (     147.707 eV)
    24      24       --        50.181 au  C             1.00      5 S               2
                        (    1365.486 eV)
    25      25      0.667      -0.199 au  C             1.00      1 P:x             2
                        (      -5.403 eV)
    26      26       --         0.173 au  C             1.00      2 P:x             2
                        (       4.709 eV)
    27      27       --         2.026 au  C             1.00      3 P:x             2
                        (      55.143 eV)
    28      28      0.667      -0.199 au  C             1.00      1 P:y             2
                        (      -5.403 eV)
    29      29       --         0.173 au  C             1.00      2 P:y             2
                        (       4.709 eV)
    30      30       --         2.026 au  C             1.00      3 P:y             2
                        (      55.143 eV)
    31      31      0.667      -0.199 au  C             1.00      1 P:z             2
                        (      -5.403 eV)
    32      32       --         0.173 au  C             1.00      2 P:z             2
                        (       4.709 eV)
    33      33       --         2.026 au  C             1.00      3 P:z             2
                        (      55.143 eV)
    34      34       --         1.232 au  C             1.00      1 D:z2            2
                        (      33.528 eV)
    35      35       --         1.232 au  C             1.00      1 D:x2-y2         2
                        (      33.528 eV)
    36      36       --         1.232 au  C             1.00      1 D:xy            2
                        (      33.528 eV)
    37      37       --         1.232 au  C             1.00      1 D:xz            2
                        (      33.528 eV)
    38      38       --         1.232 au  C             1.00      1 D:yz            2
                        (      33.528 eV)
    39      39      2.000     -10.058 au  C             1.00      1 S               3
                        (    -273.681 eV)
    40      40      2.000      -0.510 au  C             1.00      2 S               3
                        (     -13.876 eV)
    41      41       --         0.371 au  C             1.00      3 S               3
                        (      10.091 eV)
    42      42       --         5.428 au  C             1.00      4 S               3
                        (     147.707 eV)
    43      43       --        50.181 au  C             1.00      5 S               3
                        (    1365.486 eV)
    44      44      0.667      -0.199 au  C             1.00      1 P:x             3
                        (      -5.403 eV)
    45      45       --         0.173 au  C             1.00      2 P:x             3
                        (       4.709 eV)
    46      46       --         2.026 au  C             1.00      3 P:x             3
                        (      55.143 eV)
    47      47      0.667      -0.199 au  C             1.00      1 P:y             3
                        (      -5.403 eV)
    48      48       --         0.173 au  C             1.00      2 P:y             3
                        (       4.709 eV)
    49      49       --         2.026 au  C             1.00      3 P:y             3
                        (      55.143 eV)
    50      50      0.667      -0.199 au  C             1.00      1 P:z             3
                        (      -5.403 eV)
    51      51       --         0.173 au  C             1.00      2 P:z             3
                        (       4.709 eV)
    52      52       --         2.026 au  C             1.00      3 P:z             3
                        (      55.143 eV)
    53      53       --         1.232 au  C             1.00      1 D:z2            3
                        (      33.528 eV)
    54      54       --         1.232 au  C             1.00      1 D:x2-y2         3
                        (      33.528 eV)
    55      55       --         1.232 au  C             1.00      1 D:xy            3
                        (      33.528 eV)
    56      56       --         1.232 au  C             1.00      1 D:xz            3
                        (      33.528 eV)
    57      57       --         1.232 au  C             1.00      1 D:yz            3
                        (      33.528 eV)
    58      58      2.000     -10.058 au  C             1.00      1 S               4
                        (    -273.681 eV)
    59      59      2.000      -0.510 au  C             1.00      2 S               4
                        (     -13.876 eV)
    60      60       --         0.371 au  C             1.00      3 S               4
                        (      10.091 eV)
    61      61       --         5.428 au  C             1.00      4 S               4
                        (     147.707 eV)
    62      62       --        50.181 au  C             1.00      5 S               4
                        (    1365.486 eV)
    63      63      0.667      -0.199 au  C             1.00      1 P:x             4
                        (      -5.403 eV)
    64      64       --         0.173 au  C             1.00      2 P:x             4
                        (       4.709 eV)
    65      65       --         2.026 au  C             1.00      3 P:x             4
                        (      55.143 eV)
    66      66      0.667      -0.199 au  C             1.00      1 P:y             4
                        (      -5.403 eV)
    67      67       --         0.173 au  C             1.00      2 P:y             4
                        (       4.709 eV)
    68      68       --         2.026 au  C             1.00      3 P:y             4
                        (      55.143 eV)
    69      69      0.667      -0.199 au  C             1.00      1 P:z             4
                        (      -5.403 eV)
    70      70       --         0.173 au  C             1.00      2 P:z             4
                        (       4.709 eV)
    71      71       --         2.026 au  C             1.00      3 P:z             4
                        (      55.143 eV)
    72      72       --         1.232 au  C             1.00      1 D:z2            4
                        (      33.528 eV)
    73      73       --         1.232 au  C             1.00      1 D:x2-y2         4
                        (      33.528 eV)
    74      74       --         1.232 au  C             1.00      1 D:xy            4
                        (      33.528 eV)
    75      75       --         1.232 au  C             1.00      1 D:xz            4
                        (      33.528 eV)
    76      76       --         1.232 au  C             1.00      1 D:yz            4
                        (      33.528 eV)
    77      77      2.000     -10.058 au  C             1.00      1 S               5
                        (    -273.681 eV)
    78      78      2.000      -0.510 au  C             1.00      2 S               5
                        (     -13.876 eV)
    79      79       --         0.371 au  C             1.00      3 S               5
                        (      10.091 eV)
    80      80       --         5.428 au  C             1.00      4 S               5
                        (     147.707 eV)
    81      81       --        50.181 au  C             1.00      5 S               5
                        (    1365.486 eV)
    82      82      0.667      -0.199 au  C             1.00      1 P:x             5
                        (      -5.403 eV)
    83      83       --         0.173 au  C             1.00      2 P:x             5
                        (       4.709 eV)
    84      84       --         2.026 au  C             1.00      3 P:x             5
                        (      55.143 eV)
    85      85      0.667      -0.199 au  C             1.00      1 P:y             5
                        (      -5.403 eV)
    86      86       --         0.173 au  C             1.00      2 P:y             5
                        (       4.709 eV)
    87      87       --         2.026 au  C             1.00      3 P:y             5
                        (      55.143 eV)
    88      88      0.667      -0.199 au  C             1.00      1 P:z             5
                        (      -5.403 eV)
    89      89       --         0.173 au  C             1.00      2 P:z             5
                        (       4.709 eV)
    90      90       --         2.026 au  C             1.00      3 P:z             5
                        (      55.143 eV)
    91      91       --         1.232 au  C             1.00      1 D:z2            5
                        (      33.528 eV)
    92      92       --         1.232 au  C             1.00      1 D:x2-y2         5
                        (      33.528 eV)
    93      93       --         1.232 au  C             1.00      1 D:xy            5
                        (      33.528 eV)
    94      94       --         1.232 au  C             1.00      1 D:xz            5
                        (      33.528 eV)
    95      95       --         1.232 au  C             1.00      1 D:yz            5
                        (      33.528 eV)
    96      96      2.000     -10.058 au  C             1.00      1 S               6
                        (    -273.681 eV)
    97      97      2.000      -0.510 au  C             1.00      2 S               6
                        (     -13.876 eV)
    98      98       --         0.371 au  C             1.00      3 S               6
                        (      10.091 eV)
    99      99       --         5.428 au  C             1.00      4 S               6
                        (     147.707 eV)
   100     100       --        50.181 au  C             1.00      5 S               6
                        (    1365.486 eV)
   101     101      0.667      -0.199 au  C             1.00      1 P:x             6
                        (      -5.403 eV)
   102     102       --         0.173 au  C             1.00      2 P:x             6
                        (       4.709 eV)
   103     103       --         2.026 au  C             1.00      3 P:x             6
                        (      55.143 eV)
   104     104      0.667      -0.199 au  C             1.00      1 P:y             6
                        (      -5.403 eV)
   105     105       --         0.173 au  C             1.00      2 P:y             6
                        (       4.709 eV)
   106     106       --         2.026 au  C             1.00      3 P:y             6
                        (      55.143 eV)
   107     107      0.667      -0.199 au  C             1.00      1 P:z             6
                        (      -5.403 eV)
   108     108       --         0.173 au  C             1.00      2 P:z             6
                        (       4.709 eV)
   109     109       --         2.026 au  C             1.00      3 P:z             6
                        (      55.143 eV)
   110     110       --         1.232 au  C             1.00      1 D:z2            6
                        (      33.528 eV)
   111     111       --         1.232 au  C             1.00      1 D:x2-y2         6
                        (      33.528 eV)
   112     112       --         1.232 au  C             1.00      1 D:xy            6
                        (      33.528 eV)
   113     113       --         1.232 au  C             1.00      1 D:xz            6
                        (      33.528 eV)
   114     114       --         1.232 au  C             1.00      1 D:yz            6
                        (      33.528 eV)
   115     115      1.000      -0.244 au  H             1.00      1 S               7
                        (      -6.626 eV)
   116     116       --         0.093 au  H             1.00      2 S               7
                        (       2.536 eV)
   117     117       --         1.515 au  H             1.00      3 S               7
                        (      41.236 eV)
   118     118       --         0.400 au  H             1.00      1 P:x             7
                        (      10.872 eV)
   119     119       --         0.400 au  H             1.00      1 P:y             7
                        (      10.872 eV)
   120     120       --         0.400 au  H             1.00      1 P:z             7
                        (      10.872 eV)
   121     121      1.000      -0.244 au  H             1.00      1 S               8
                        (      -6.626 eV)
   122     122       --         0.093 au  H             1.00      2 S               8
                        (       2.536 eV)
   123     123       --         1.515 au  H             1.00      3 S               8
                        (      41.236 eV)
   124     124       --         0.400 au  H             1.00      1 P:x             8
                        (      10.872 eV)
   125     125       --         0.400 au  H             1.00      1 P:y             8
                        (      10.872 eV)
   126     126       --         0.400 au  H             1.00      1 P:z             8
                        (      10.872 eV)
   127     127      1.000      -0.244 au  H             1.00      1 S               9
                        (      -6.626 eV)
   128     128       --         0.093 au  H             1.00      2 S               9
                        (       2.536 eV)
   129     129       --         1.515 au  H             1.00      3 S               9
                        (      41.236 eV)
   130     130       --         0.400 au  H             1.00      1 P:x             9
                        (      10.872 eV)
   131     131       --         0.400 au  H             1.00      1 P:y             9
                        (      10.872 eV)
   132     132       --         0.400 au  H             1.00      1 P:z             9
                        (      10.872 eV)
   133     133      1.000      -0.244 au  H             1.00      1 S              10
                        (      -6.626 eV)
   134     134       --         0.093 au  H             1.00      2 S              10
                        (       2.536 eV)
   135     135       --         1.515 au  H             1.00      3 S              10
                        (      41.236 eV)
   136     136       --         0.400 au  H             1.00      1 P:x            10
                        (      10.872 eV)
   137     137       --         0.400 au  H             1.00      1 P:y            10
                        (      10.872 eV)
   138     138       --         0.400 au  H             1.00      1 P:z            10
                        (      10.872 eV)
   139     139      1.000      -0.244 au  H             1.00      1 S              11
                        (      -6.626 eV)
   140     140       --         0.093 au  H             1.00      2 S              11
                        (       2.536 eV)
   141     141       --         1.515 au  H             1.00      3 S              11
                        (      41.236 eV)
   142     142       --         0.400 au  H             1.00      1 P:x            11
                        (      10.872 eV)
   143     143       --         0.400 au  H             1.00      1 P:y            11
                        (      10.872 eV)
   144     144       --         0.400 au  H             1.00      1 P:z            11
                        (      10.872 eV)
   145     145      1.000      -0.244 au  H             1.00      1 S              12
                        (      -6.626 eV)
   146     146       --         0.093 au  H             1.00      2 S              12
                        (       2.536 eV)
   147     147       --         1.515 au  H             1.00      3 S              12
                        (      41.236 eV)
   148     148       --         0.400 au  H             1.00      1 P:x            12
                        (      10.872 eV)
   149     149       --         0.400 au  H             1.00      1 P:y            12
                        (      10.872 eV)
   150     150       --         0.400 au  H             1.00      1 P:z            12
                        (      10.872 eV)



 ================================
 (Slater-type)  F U N C T I O N S  ***  (Basis and Fit)  ***
 ================================
  

 Atom Type    1  (C)
 ==============

 Valence Basis Sets:   9
 -----------------------
   1 S    7.680000
   1 S    5.000000
   2 S    1.280000
   2 S    2.100000
   2 S    4.600000
   2 P    0.820000
   2 P    1.480000
   2 P    2.940000
   3 D    2.200000

 Atom Type    2  (H)
 ==============

 Valence Basis Sets:   4
 -----------------------
   1 S    0.690000
   1 S    0.920000
   1 S    1.580000
   2 P    1.250000


 BAS: List of all Elementary Cartesian Basis Functions
 =====================================================

 The numbering in the list below (to the right of the function characteristics) is referred
 to in print-outs of MO eigenvectors and Mulliken populations in the BAS representation
 (as contrasted to the SFO representation).

 Notes:
 1. The functions are characterized by a polynomial prefactor (powers of x,y,z and r) and
    an exponential decay factor alpha.
 2. Since the basis sets are specific for an atom TYPE, the individual functions occur on
    all atoms of that type.
 3. The word 'Core' in the left margin signals that it is a Core Function (CF) : not a
    degree of freedom in the valence set, but only used to ensure orthogonalization of
    the other valence basis functions on the frozen Core Orbitals.


 (power of) X  Y  Z  R     Alpha  on Atom
            ==========     =====     ==========

 C                                    1    2    3    4    5    6
                                  ---------------------------------------------------------------------------
            0  0  0  0     7.680      1   21   41   61   81  101
            0  0  0  0     5.000      2   22   42   62   82  102
            0  0  0  1     1.280      3   23   43   63   83  103
            0  0  0  1     2.100      4   24   44   64   84  104
            0  0  0  1     4.600      5   25   45   65   85  105
            1  0  0  0     0.820      6   26   46   66   86  106
            0  1  0  0     0.820      7   27   47   67   87  107
            0  0  1  0     0.820      8   28   48   68   88  108
            1  0  0  0     1.480      9   29   49   69   89  109
            0  1  0  0     1.480     10   30   50   70   90  110
            0  0  1  0     1.480     11   31   51   71   91  111
            1  0  0  0     2.940     12   32   52   72   92  112
            0  1  0  0     2.940     13   33   53   73   93  113
            0  0  1  0     2.940     14   34   54   74   94  114
            2  0  0  0     2.200     15   35   55   75   95  115
            1  1  0  0     2.200     16   36   56   76   96  116
            1  0  1  0     2.200     17   37   57   77   97  117
            0  2  0  0     2.200     18   38   58   78   98  118
            0  1  1  0     2.200     19   39   59   79   99  119
            0  0  2  0     2.200     20   40   60   80  100  120

 H                                    7    8    9   10   11   12
                                  ---------------------------------------------------------------------------
            0  0  0  0     0.690    121  127  133  139  145  151
            0  0  0  0     0.920    122  128  134  140  146  152
            0  0  0  0     1.580    123  129  135  141  147  153
            1  0  0  0     1.250    124  130  136  142  148  154
            0  1  0  0     1.250    125  131  137  143  149  155
            0  0  1  0     1.250    126  132  138  144  150  156

 Total number of charge fitting functions (nprimf)       804
 Total number of Cartesian basis functions (naos)        156
 Total number of Cartesian core functions  (ncos)          0

1
 ***************************************************************************************************



                                              ***********************
                                              *  T E C H N I C A L  *
                                              ***********************
  



 =============================================================
 P A R A L L E L I Z A T I O N  and  V E C T O R I Z A T I O N
 =============================================================
  
 Nr of parallel processes:                                6
 Maximum vector length in NumInt loops:                 128



 =====================
 S C F   U P D A T E S
 =====================
  
 Max. nr. of cycles:                               300
 Convergence criterion:                              0.0000010000
   secondary criterion:                              0.0010000000

 Mix parameter (when DIIS does not apply):           0.2000000000
 Mixed ADIIS+SDIIS will be used                  
    Max number of expansion vectors:                10
    Pure ADIIS when Max([F,P]) is above              0.1000000000
    Pure SDIIS when Max([F,P]) is below              0.0010000000
 Automatic ElectronSmearing (in case of problematic SCF convergence) disabled



 =================
 P R E C I S I O N  ***  (General: NumInt, NeglectFunctionTails, ...)  ***
 =================
  

 NumInt:           Target precision:                 4.0000000000
 -------           Initial precision:                4.0000000000
                   Min. precision (optimization):    4.0000000000

 Neglect Functions:          Basis functions:        0.1000000000E-13
 ------------------          Fit functions:          0.1000000000E-13



 ===========================
 L I N E A R   S C A L I N G
 ===========================
  

 Cut-off radii density fit:                        0.1000000000E-07
 Overlap cut-off criterion AO matrix elements:     0.1000000000E-05
 Cut-offs for Coulomb potential and fitted density:0.1000000000E-07
 Cut-off criterion for Coulomb multipole terms:    0.1000000000E-07
 Progressive Convergence parameter:                 0.000000000    
1
 ***************************************************************************************************



                                            ***************************
                                            *  C O M P U T A T I O N  *
                                            ***************************
  

 Number of elements of the density matrix on this node (used, total):      1962     12246



 ===========================================
 Numerical Integration : Fuzzy Cells (Becke)
 ===========================================
  
 Becke grid quality: NORMAL         
  
 Lebedev angular grid order:             min:  11 max:  23
 Nr. of radial points:                   min:  46 max:  52

 Total nr. of points:      75660
 Nr. of blocks:              592
 Block length:               128
 Nr. of dummy points:        116


 Test of Precision of the Numerical Integration Grid
 ===================================================

 Integral of the Total Core Density:                   0.00000000000000



 ========================
 Density Fitting (zlmFit)
 ========================
  
 ZlmFit Fit Quality: NORMAL         
  
 Max L-expansion:                        min:   5 max:   6
 Nr. of radial interpolation points:     min:  36 max:  48



 =====
 S C F  ***  ScaSCF  ***
 =====
  
 Initial density matrix is calculated as sum of fragments

 CYCLE    1
 SCF Error: norm([F,P])=      5.990933060729, max([F,P])=      0.980974597942
 orbitals (Q,E):
 ---------------
 A :12...31          ( 2.00    -0.6583)  ( 2.00    -0.6250)  ( 2.00    -0.5884)  ( 2.00    -0.5691)
                     ( 2.00    -0.5689)  ( 2.00    -0.5031)  ( 2.00    -0.5016)  ( 2.00    -0.5015)
                     ( 2.00    -0.4055)  ( 2.00    -0.4055)  ( 0.00    -0.2151)  ( 0.00    -0.2151)
                     ( 0.00    -0.0768)  ( 0.00    -0.0731)  ( 0.00    -0.0375)  ( 0.00    -0.0375)
                     ( 0.00    -0.0111)  ( 0.00    -0.0111)  ( 0.00     0.0270)  ( 0.00     0.0510)

 CYCLE    2
   MIX coefficients:  0.8000  0.2000
 SCF Error: norm([F,P])=      0.892327867988, max([F,P])=      0.187117865191
 orbitals (Q,E):
 ---------------
 A :12...22          ( 2.00    -0.5946)  ( 2.00    -0.5421)  ( 2.00    -0.5328)  ( 2.00    -0.5022)
                     ( 2.00    -0.5020)  ( 2.00    -0.4366)  ( 2.00    -0.4344)  ( 2.00    -0.4343)
                     ( 2.00    -0.3389)  ( 2.00    -0.3388)  ( 0.00    -0.1501)

 CYCLE    3
  SDIIS (wt  0.000): -1.2669  2.2669
 A-DIIS (wt  1.000):  0.0000  1.0000
  DIIS coefficients:  0.0000  1.0000
 SCF Error: norm([F,P])=      0.521452519311, max([F,P])=      0.102606084228
 orbitals (Q,E):
 ---------------
 A :12...22          ( 2.00    -0.3985)  ( 2.00    -0.3564)  ( 2.00    -0.2966)  ( 2.00    -0.2964)
                     ( 2.00    -0.2951)  ( 2.00    -0.2475)  ( 2.00    -0.2227)  ( 2.00    -0.2227)
                     ( 2.00    -0.1499)  ( 2.00    -0.1498)  ( 0.00     0.0285)

 CYCLE    4
  SDIIS (wt  0.000):  0.1837  0.3521  0.4642
 A-DIIS (wt  1.000): -0.0000  0.6402  0.3598
  DIIS coefficients: -0.0000  0.6402  0.3598
 SCF Error: norm([F,P])=      0.743253823275, max([F,P])=      0.172659087620
 orbitals (Q,E):
 ---------------
 A :12...22          ( 2.00    -0.4673)  ( 2.00    -0.4037)  ( 2.00    -0.3933)  ( 2.00    -0.3709)
                     ( 2.00    -0.3706)  ( 2.00    -0.3293)  ( 2.00    -0.2970)  ( 2.00    -0.2969)
                     ( 2.00    -0.2286)  ( 2.00    -0.2286)  ( 0.00    -0.0404)

 CYCLE    5
  SDIIS (wt  0.902): -0.0173  0.2160  0.0732  0.7280
 A-DIIS (wt  0.098):  0.0000  0.0000  0.0000  1.0000
  DIIS coefficients: -0.0156  0.1948  0.0660  0.7548
 SCF Error: norm([F,P])=      0.076227166954, max([F,P])=      0.010736497312
 orbitals (Q,E):
 ---------------
 A :12...22          ( 2.00    -0.4793)  ( 2.00    -0.4187)  ( 2.00    -0.4084)  ( 2.00    -0.3828)
                     ( 2.00    -0.3825)  ( 2.00    -0.3380)  ( 2.00    -0.3110)  ( 2.00    -0.3109)
                     ( 2.00    -0.2384)  ( 2.00    -0.2383)  ( 0.00    -0.0510)

 CYCLE    6
  SDIIS (wt  0.992): -0.0028  0.0316  0.0083  0.1933  0.7695
 A-DIIS (wt  0.008):  0.0000  0.0000  0.0000  0.0000  1.0000
  DIIS coefficients: -0.0028  0.0314  0.0083  0.1917  0.7714
 SCF Error: norm([F,P])=      0.010772208335, max([F,P])=      0.001819787057
 orbitals (Q,E):
 ---------------
 A :12...22          ( 2.00    -0.4790)  ( 2.00    -0.4180)  ( 2.00    -0.4074)  ( 2.00    -0.3826)
                     ( 2.00    -0.3824)  ( 2.00    -0.3374)  ( 2.00    -0.3104)  ( 2.00    -0.3103)
                     ( 2.00    -0.2377)  ( 2.00    -0.2376)  ( 0.00    -0.0502)

 CYCLE    7
  SDIIS (wt  1.000): -0.0006  0.0130  0.0031  0.0866  0.3683  0.5296
  DIIS coefficients: -0.0006  0.0130  0.0031  0.0866  0.3683  0.5296
 SCF Error: norm([F,P])=      0.002374436448, max([F,P])=      0.000556337088
 orbitals (Q,E):
 ---------------
 A :12...22          ( 2.00    -0.4791)  ( 2.00    -0.4181)  ( 2.00    -0.4075)  ( 2.00    -0.3826)
                     ( 2.00    -0.3824)  ( 2.00    -0.3375)  ( 2.00    -0.3105)  ( 2.00    -0.3104)
                     ( 2.00    -0.2378)  ( 2.00    -0.2377)  ( 0.00    -0.0503)

 CYCLE    8
  SDIIS (wt  1.000):  0.0007  0.0010  0.0001  0.0148  0.0806  0.4568  0.4461
  DIIS coefficients:  0.0007  0.0010  0.0001  0.0148  0.0806  0.4568  0.4461
 SCF Error: norm([F,P])=      0.002029692701, max([F,P])=      0.000465382186
 orbitals (Q,E):
 ---------------
 A :12...22          ( 2.00    -0.4791)  ( 2.00    -0.4181)  ( 2.00    -0.4075)  ( 2.00    -0.3827)
                     ( 2.00    -0.3825)  ( 2.00    -0.3376)  ( 2.00    -0.3105)  ( 2.00    -0.3104)
                     ( 2.00    -0.2379)  ( 2.00    -0.2378)  ( 0.00    -0.0504)

 CYCLE    9
  SDIIS (wt  1.000):  0.0002 -0.0001 -0.0000  0.0013  0.0087  0.0672  0.0797  0.8432
  DIIS coefficients:  0.0002 -0.0001 -0.0000  0.0013  0.0087  0.0672  0.0797  0.8432
 SCF Error: norm([F,P])=      0.000083900391, max([F,P])=      0.000023359623
 orbitals (Q,E):
 ---------------
 A :12...22          ( 2.00    -0.4791)  ( 2.00    -0.4181)  ( 2.00    -0.4076)  ( 2.00    -0.3827)
                     ( 2.00    -0.3825)  ( 2.00    -0.3376)  ( 2.00    -0.3105)  ( 2.00    -0.3105)
                     ( 2.00    -0.2379)  ( 2.00    -0.2378)  ( 0.00    -0.0504)

 CYCLE   10
  SDIIS (wt  1.000):  0.0001 -0.0001 -0.0000 -0.0003 -0.0006  0.0070  0.0164  0.5848  0.3929
  DIIS coefficients:  0.0001 -0.0001 -0.0000 -0.0003 -0.0006  0.0070  0.0164  0.5848  0.3929
 SCF Error: norm([F,P])=      0.000102935328, max([F,P])=      0.000026027596
 orbitals (Q,E):
 ---------------
 A :12...22          ( 2.00    -0.4791)  ( 2.00    -0.4181)  ( 2.00    -0.4076)  ( 2.00    -0.3827)
                     ( 2.00    -0.3825)  ( 2.00    -0.3376)  ( 2.00    -0.3105)  ( 2.00    -0.3105)
                     ( 2.00    -0.2379)  ( 2.00    -0.2378)  ( 0.00    -0.0504)

 CYCLE   11
  SDIIS (wt  1.000):  0.0000 -0.0000 -0.0000  0.0000 -0.0000 -0.0001 -0.0002 -0.0043  0.0025  1.0021
  DIIS coefficients:  0.0000 -0.0000 -0.0000  0.0000 -0.0000 -0.0001 -0.0002 -0.0043  0.0025  1.0021
 SCF Error: norm([F,P])=      0.000001316731, max([F,P])=      0.000000336533
 orbitals (Q,E):
 ---------------
 A :12...22          ( 2.00    -0.4791)  ( 2.00    -0.4181)  ( 2.00    -0.4076)  ( 2.00    -0.3827)
                     ( 2.00    -0.3825)  ( 2.00    -0.3376)  ( 2.00    -0.3105)  ( 2.00    -0.3105)
                     ( 2.00    -0.2379)  ( 2.00    -0.2378)  ( 0.00    -0.0504)

 SCF CONVERGED

 CYCLE   12
1
 ***************************************************************************************************



                                                *******************
                                                *  R E S U L T S  *
                                                *******************
  
 *** Using FIT density in Focky
  SDIIS (wt  1.000): -0.0000 -0.0000  0.0000 -0.0000 -0.0001 -0.0002 -0.0062 -0.0015  0.4797  0.5283
  DIIS coefficients: -0.0000 -0.0000  0.0000 -0.0000 -0.0001 -0.0002 -0.0062 -0.0015  0.4797  0.5283
 SCF Error: norm([F,P])=      0.000000274386, max([F,P])=      0.000000072020

 Orbital Energies, per Irrep and Spin:
 ======================================
                        Occup              E (au)              E (eV)       Diff (eV) with prev. cycle
                        -----      --------------------        ------       --------------------------
 A
              12        2.000     -0.47913313648897E+00       -13.038               6.04E-08
              13        2.000     -0.41810984788557E+00       -11.377               8.60E-08
              14        2.000     -0.40755381168990E+00       -11.090               6.71E-08
              15        2.000     -0.38269249204630E+00       -10.414               5.54E-08
              16        2.000     -0.38246811688695E+00       -10.407               5.69E-08
              17        2.000     -0.33758047895023E+00        -9.186               2.85E-08
              18        2.000     -0.31053941086706E+00        -8.450               7.78E-08
              19        2.000     -0.31045914780074E+00        -8.448               6.36E-08
              20        2.000     -0.23788044776299E+00        -6.473               3.08E-08
              21        2.000     -0.23782193104743E+00        -6.471               3.80E-08
              22        0.000     -0.50384588305425E-01        -1.371
              23        0.000     -0.50334481204727E-01        -1.370
              24        0.000      0.20339695569269E-02         0.055
              25        0.000      0.27837699064413E-01         0.758
              26        0.000      0.27862244101679E-01         0.758
              27        0.000      0.60711856185539E-01         1.652
              28        0.000      0.60761755164771E-01         1.653
              29        0.000      0.90659400566000E-01         2.467
              30        0.000      0.96118321173364E-01         2.616
              31        0.000      0.14212242787653E+00         3.867
  
 HOMO :       21 A                -0.23782193104743E+00
 LUMO :       22 A                -0.50384588305425E-01
  


 All Electron Calculation, thus no Orbital Energies of the Core Orbitals are calculated


 Fit test: (difference of exact and fit density, squared integrated, result summed over spins)
         Sum-of-Fragments:                             0.00000000048365
         Orthogonalized Fragments:                     0.00013298831894
         SCF:                                          0.00048707303117



 ==========================
 Electron Density at Nuclei
 ==========================
  
 The electron density is calculated at points on a small sphere around the center of a nucleus.
 The printed electron density is the average electron density on these points.
 The radius of the sphere is the printed approximate finite nuclear radius.

         Atom        Nuclear Radius (Angstrom)             Electron Density (a.u.)
         ----        -------------------------             -----------------------
     1)   C                 0.0000320678                              126.51439
     2)   C                 0.0000320678                              126.51564
     3)   C                 0.0000320678                              126.51458
     4)   C                 0.0000320678                              126.51444
     5)   C                 0.0000320678                              126.51577
     6)   C                 0.0000320678                              126.51468
     7)   H                 0.0000181514                                0.49881
     8)   H                 0.0000181514                                0.49876
     9)   H                 0.0000181514                                0.49863
    10)   H                 0.0000181514                                0.49866
    11)   H                 0.0000181514                                0.49857
    12)   H                 0.0000181514                                0.49865



 =======================================
 M U L L I K E N   P O P U L A T I O N S
 =======================================
  
 The survey below gives for each atom:
 a) the total charge (Z minus electrons)
 b) the net spin polarization (nr of electrons spin-A minus spin-B)
 c) for each spin the atomic electron valence density (integrated) per L-value.

 Atom              Charge    Spin density          S         P         D         F
 ----              ------    ------------       ------    ------    ------    ------
 1 C               0.1754                       3.0649    2.6988    0.0610    0.0000
 2 C               0.1756                       3.0643    2.6991    0.0611    0.0000
 3 C               0.1754                       3.0643    2.6992    0.0611    0.0000
 4 C               0.1754                       3.0650    2.6987    0.0609    0.0000
 5 C               0.1758                       3.0656    2.6977    0.0609    0.0000
 6 C               0.1756                       3.0656    2.6979    0.0609    0.0000
 7 H              -0.1760                       1.1045    0.0714    0.0000    0.0000
 8 H              -0.1757                       1.1043    0.0714    0.0000    0.0000
 9 H              -0.1750                       1.1037    0.0714    0.0000    0.0000
 10 H             -0.1759                       1.1044    0.0715    0.0000    0.0000
 11 H             -0.1756                       1.1042    0.0714    0.0000    0.0000
 12 H             -0.1751                       1.1037    0.0714    0.0000    0.0000

 Populations of individual BAS functions
 ----------------------------------------
 1 C            0.4869  1.5144  0.2298  0.8872 -0.0535 -0.1034  0.1474 -0.2377  0.8055  0.6780
                0.8823  0.2001  0.1366  0.1899  0.0268  0.0122  0.0174 -0.0175  0.0040  0.0181
 2 C            0.4870  1.5144  0.2290  0.8874 -0.0535 -0.2020  0.1469 -0.1399  0.8620  0.6785
                0.8268  0.1927  0.1367  0.1975  0.0180  0.0062  0.0221 -0.0176  0.0100  0.0222
 3 C            0.4870  1.5144  0.2291  0.8873 -0.0535 -0.2067  0.1470 -0.1349  0.8646  0.6785
                0.8239  0.1923  0.1367  0.1979  0.0179  0.0059  0.0217 -0.0175  0.0103  0.0228
 4 C            0.4869  1.5144  0.2299  0.8872 -0.0535 -0.1033  0.1475 -0.2378  0.8054  0.6780
                0.8823  0.2001  0.1366  0.1899  0.0268  0.0122  0.0174 -0.0175  0.0040  0.0181
 5 C            0.4870  1.5144  0.2304  0.8873 -0.0535 -0.2029  0.1476 -0.1392  0.8622  0.6777
                0.8260  0.1925  0.1365  0.1972  0.0182  0.0062  0.0220 -0.0175  0.0100  0.0221
 6 C            0.4869  1.5145  0.2305  0.8873 -0.0535 -0.2078  0.1478 -0.1340  0.8649  0.6777
                0.8231  0.1921  0.1365  0.1975  0.0180  0.0059  0.0215 -0.0175  0.0103  0.0226
 7 H            0.2099  0.5757  0.3189  0.0288  0.0217  0.0209
 8 H            0.2095  0.5759  0.3189  0.0294  0.0217  0.0203
 9 H            0.2085  0.5762  0.3189  0.0162  0.0217  0.0334
 10 H           0.2096  0.5760  0.3188  0.0289  0.0217  0.0208
 11 H           0.2091  0.5763  0.3187  0.0295  0.0217  0.0202
 12 H           0.2086  0.5762  0.3189  0.0162  0.0217  0.0334

 Gross Charges per Atom (Z minus electrons)
 ==========================================
             0.1754    0.1756    0.1754    0.1754    0.1758    0.1756   -0.1760   -0.1757   -0.1750   -0.1759
            -0.1756   -0.1751
 Net Total:  0.00000000


 Atom-Atom Population Matrix (off-diagonal elements not doubled)
 ===============================================================

     1 :     4.5228
     2 :     0.5420    4.5213
     3 :    -0.0101    0.5423    4.5214
     4 :    -0.0557   -0.0101    0.5421    4.5230
     5 :    -0.0111   -0.0555   -0.0107    0.5414    4.5233
     6 :     0.5416   -0.0106   -0.0555   -0.0112    0.5412    4.5233
     7 :    -0.0537    0.3939   -0.0536    0.0020    0.0041    0.0021    0.9824
     8 :     0.0020   -0.0536    0.3939   -0.0538    0.0022    0.0041   -0.0475    0.9821
     9 :     0.0041    0.0020   -0.0534    0.3939   -0.0534    0.0023   -0.0039   -0.0475    0.9808
    10 :     0.0023    0.0041    0.0021   -0.0535    0.3939   -0.0534    0.0015   -0.0038   -0.0477    0.9819
    11 :    -0.0536    0.0021    0.0041    0.0023   -0.0534    0.3939   -0.0038    0.0015   -0.0038   -0.0477
             0.9816
    12 :     0.3939   -0.0534    0.0020    0.0041    0.0023   -0.0534   -0.0475   -0.0039    0.0016   -0.0038
            -0.0476    0.9808



 =================================================
 H I R S H F E L D   C H A R G E   A N A L Y S I S
 =================================================
  
 For each fragment: the (numerical) integral of rho(scf) * rho(fragment)/rho(sum-of-fragments)
 (nuclear charges are included, electrons are counted negative)

 The fragments and their ordering are defined in the early G E O M E T R Y output section.
 If you use single-atom fragments, this usually implies that all atoms of the same
 chemical type are grouped together. This may not be the order in which you listed them
 in the input file!

    1  C                        -0.0463
    2  C                        -0.0463
    3  C                        -0.0463
    4  C                        -0.0463
    5  C                        -0.0464
    6  C                        -0.0463
    7  H                         0.0464
    8  H                         0.0463
    9  H                         0.0462
   10  H                         0.0463
   11  H                         0.0463
   12  H                         0.0462

 Sum of these charges (accuracy NumInt/Tails) =          -0.00005966



 =============================
 V O R O N O I   C H A R G E S
 =============================
  
 For each atom: the (numerical) integral of the total electronic charge density in its Voronoi cell,
 i.e. the region of space that is closer to that atom than to any other atom.
 (cf. Wigner-Seitz cells in crystals)

 Within the Voronoi cell the subintegrals over the atomic sphere and the remaining part are evaluated
 separately to give the numbers of electrons (negative charge) in these regions.
 The net total charge in the cell (including the nuclear charge) is also given.

 Values are provided for
    a) the Initial (sum-of-fragments) density
    b) the Orthogonalized-Fragments density
    c) the SCF density
    d) the Voronoi Deformation Density (VDD): the difference SCF-Initial for the complete atomic cell


  Atom                Initial                    OrthFrag                   SCF
             Sphere RestCell NetTotal   Sphere RestCell NetTotal   Sphere RestCell NetTotal      VDD
 -----       ------------------------   ------------------------   ------------------------    -----
    1 C      -2.269   -3.184    0.547   -2.452   -3.137    0.411   -2.303   -3.206    0.491   -0.056
    2 C      -2.269   -3.190    0.541   -2.452   -3.137    0.411   -2.303   -3.207    0.490   -0.052
    3 C      -2.269   -3.185    0.546   -2.452   -3.139    0.408   -2.303   -3.208    0.489   -0.057
    4 C      -2.268   -3.187    0.544   -2.452   -3.139    0.409   -2.303   -3.209    0.488   -0.056
    5 C      -2.268   -3.192    0.539   -2.452   -3.138    0.410   -2.303   -3.209    0.489   -0.051
    6 C      -2.268   -3.190    0.541   -2.452   -3.143    0.406   -2.303   -3.212    0.485   -0.057
    7 H      -0.075   -1.473   -0.548   -0.096   -1.317   -0.413   -0.109   -1.384   -0.493    0.055
    8 H      -0.075   -1.470   -0.545   -0.096   -1.313   -0.408   -0.109   -1.379   -0.488    0.057
    9 H      -0.075   -1.463   -0.538   -0.096   -1.311   -0.406   -0.109   -1.377   -0.486    0.052
   10 H      -0.075   -1.472   -0.547   -0.096   -1.317   -0.413   -0.109   -1.384   -0.492    0.055
   11 H      -0.075   -1.465   -0.539   -0.096   -1.310   -0.405   -0.109   -1.375   -0.484    0.055
   12 H      -0.075   -1.468   -0.543   -0.096   -1.314   -0.410   -0.109   -1.380   -0.489    0.053
 ---------------------------------------------------------------------------------------------------
 Total NetCharge:              -0.000                     -0.000                     -0.000    0.000
 (accuracy NumInt/Tails)

 Remark: the 'NetTotal' Voronoi charges often do not match the Mulliken and/or Hirshfeld charges very
 well. This is caused by the fact that chemically different atoms are not treated in accordance with
 their relative sizes. (Voronoi cells are defined by boundary planes halfway between the atoms.)
 However, the CHANGES in charge, comparing 'Initial' to 'SCF' for instance, do give a fair indication
 of the flow of charge caused by the relaxation from sum-of-fragments to self-consistency.

 Warning: the absolute accuracy of the VDD charges obtained using the Fuzzy Cells (Becke) integration
 scheme is much poorer than the one obtained with an 'equivalent' Voronoi integration grid. 



 =================================================================
 M U L T I P O L E   D E R I V E D   C H A R G E   A N A L Y S I S
 =================================================================

 This charge analysis uses the atomic multipoles (obtained from the fitted density) up to some level X,
 and reconstructs these multipoles exactly (up to level X) by distributing charges over all atoms.
 This is achieved by using Lagrange multipliers and a weight function to keep the multipoles local.

 Dummy atoms can be included (by setting INCDUM in MDC-block to 1) to obtain a fractional charge.
 This is generally useful and necessary only for small symmetrical molecules, when there are not
 enough degrees of freedom to reconstruct the multipoles.

 Since the atomic multipoles are reconstructed up to level X,
 the molecular multipoles are represented also up to level X.
 The recommended level is to reconstruct up to quadrupole : -> MDC-q charges.

 See: M. Swart, P.Th. van Duijnen, J.G. Snijders, J.Comput.Chem., (2001), p. 79-88.

 ------------------------------------------------------------- 
 Atomic electronic multipole moments from SCF equations (a.u.)
 ------------------------------------------------------------- 

   atom        charge        dip-x     dip-y     dip-z      quad-xx   quad-xy   quad-xz   quad-yy   quad-yz   quad-zz
 --------------------------------------------------------------------------------------------------------------------
    1 C      0.060879     0.001170  0.000000 -0.047095     0.469040 -0.000000 -0.002641 -0.996597 -0.000000  0.527557
    2 C      0.060627    -0.041734  0.000000 -0.025505     0.507152 -0.000000  0.014996 -0.993272  0.000000  0.486119
    3 C      0.060753    -0.042138 -0.000000  0.023357     0.510512 -0.000000 -0.015324 -0.994368  0.000000  0.483856
    4 C      0.060850    -0.000814  0.000000  0.047154     0.468796  0.000000  0.001107 -0.996666  0.000000  0.527870
    5 C      0.060283     0.042401  0.000000  0.025722     0.510332 -0.000000  0.014803 -0.994392  0.000000  0.484060
    6 C      0.060425     0.042767  0.000000 -0.023454     0.514130 -0.000000 -0.014662 -0.995391 -0.000000  0.481261
    7 H     -0.060630    -0.019272  0.000000 -0.012069     0.159788 -0.000000  0.080682 -0.195180 -0.000000  0.035392
    8 H     -0.060622    -0.019626  0.000000  0.011243     0.170059 -0.000000 -0.076857 -0.195493  0.000000  0.025434
    9 H     -0.060670     0.000123  0.000000  0.022642    -0.038596  0.000000 -0.003135 -0.194906 -0.000000  0.233502
   10 H     -0.060620     0.019633  0.000000  0.011652     0.160808 -0.000000  0.080343 -0.195562  0.000000  0.034754
   11 H     -0.060603     0.020050  0.000000 -0.010678     0.171255  0.000000 -0.076372 -0.195847 -0.000000  0.024593
   12 H     -0.060673     0.001100  0.000000 -0.022614    -0.038528  0.000000 -0.004601 -0.194879  0.000000  0.233407

 --------------------------------------- 
 Multipole derived atomic charges (a.u.)
 --------------------------------------- 

 The MDC-m charges are just the Monopole terms in the multipole expansion, while for the MDC-d charges
 also the Dipoles are reconstructed. The usually preferred charges are the MDC-q charges.
 These reconstruct the Monopoles, Dipoles and Quadrupoles (both atomic AND molecular).

        Atom    Level:     MDC-m        MDC-d        MDC-q
 ---------------------------------------------------------
     1     C            0.060879     0.034934    -0.125937
     2     C            0.060627     0.034619    -0.127450
     3     C            0.060753     0.034762    -0.127293
     4     C            0.060850     0.034915    -0.126022
     5     C            0.060283     0.034379    -0.128661
     6     C            0.060425     0.034529    -0.128373
     7     H           -0.060630    -0.034537     0.127489
     8     H           -0.060622    -0.034795     0.127241
     9     H           -0.060670    -0.035065     0.126732
    10     H           -0.060620    -0.034182     0.127931
    11     H           -0.060603    -0.034466     0.127665
    12     H           -0.060673    -0.035093     0.126678

 ------------------------------------------------ 
 Average absolute deviations in atomic multipoles
 ------------------------------------------------ 

 Stated here are the average differences between the atomic multipoles
 and the reconstructed atomic multipoles (from the distributed charges).
 If these values are not zero, this means there are not enough degrees of freedom,
 to be able to reconstruct the atomic multipoles. (This usually happens only
 for small and/or highly symmetric molecules). If this is the case, one could add
 dummy atoms as extra point charges (and setting INCDUM in MDC-block to 1).

 Level:                                 MDC-d        MDC-q
 ---------------------------------------------------------
 Charge   (a.u.)                       0.0000       0.0000
 Dipole   (Debye)                      0.0000       0.0000
 Quad.    (a.u.)                       0.2134       0.0000

 --------------------------------------- 
 Represented molecular multipole moments
 --------------------------------------- 

 Given here are the Molecular multipole moments from the atomic charges, and from the Fit Density.
 Note that the atomic charges represent the latter, NOT the ones from the Exact density.

            Q (a.u.)             Dipole moment (Debye)                                          Quadrupole moment (a.u.)
                                 x         y         z              xx        xy        xz        yy        yz        zz
------------------------------------------------------------------------------------------------------------------------
MDC-m        -0.0000       -0.0068   -0.0000   -0.0006         -1.3797   -0.0306   -0.0014    2.7586   -0.0028   -1.3789
MDC-d        -0.0000        0.0025   -0.0000    0.0003         -0.7729    0.0109    0.0073    1.5782    0.0012   -0.8053
MDC-q        -0.0000        0.0025   -0.0000    0.0003          2.9009    0.0109    0.0052   -5.7910    0.0012    2.8901
 
Fit.Dens.    -0.0000        0.0025    0.0000    0.0003          2.9009    0.0109    0.0044   -5.7910    0.0012    2.8901



 =============
 Dipole Moment  ***  (Debye)  ***
 =============
  
 Vector   :         0.00251048     -0.00000010      0.00029364
 Magnitude:         0.00252760

 This molecular dipole moment is calculated with analytic integration



 =========================================
 Quadrupole Moment (Buckingham convention)  ***  (a.u.)  ***
 =========================================
  
      quad-xx        quad-xy        quad-xz        quad-yy        quad-yz        quad-zz
      2.91228872     0.01119911     0.00262188    -5.81936676     0.00130980     2.90707805

 This molecular quadrupole moment is calculated with analytic integration
1



 =======================================================
 S F O   P O P U L A T I O N S ,   M O   A N A L Y S I S
 =======================================================
  
 A Mulliken population analysis is performed on (input-)selected MOs. All populations refer to SFOs.
 BAS populations may have been printed directly after the SCF part.


                                       === A ===


 SFO contributions (%) per orbital
 (multiplication by the orbital occupation yields the SFO Gross Populations)

 Orb.:       12     13     14     15     16     17     18     19     20     21     22     23     24     25
 occup:     2.00   2.00   2.00   2.00   2.00   2.00   2.00   2.00   2.00   2.00   0.00   0.00   0.00   0.00
 CF+SFO     ----   ----   ----   ----   ----   ----   ----   ----   ----   ----   ----   ----   ----   ----
 ------
      2:    0.24   4.04  -0.00   0.00   0.03  -0.00  -0.00  -0.06   0.00   0.00   0.00  -0.00  -0.24   0.01
      3:   -0.08   0.11   0.00  -0.00  -0.18   0.00  -0.00  -0.02  -0.00   0.00   0.00  -0.00  -2.69  -0.10
      6:    0.00   0.00  14.45   0.43  -0.00  -0.00   9.01   0.16   0.00  -0.00   0.00  -0.00   0.00  -1.74
      7:    0.00   0.00   2.00   0.67  -0.00   0.00   2.99   0.06   0.00  -0.00  -0.00  -0.00  -0.00  -8.10
      9:    0.00  -0.00  -0.00   0.00   0.00  17.23  -0.00   0.00   0.26  31.50   0.44  34.05   0.00   0.00
     10:   -0.00   0.00  -0.00   0.00   0.00  -0.98  -0.00  -0.00   0.00   0.11  -0.05  -3.80  -0.00   0.00
     12:   10.70   2.58   0.00   0.29  17.51  -0.00   0.14   5.73  -0.00   0.00  -0.00  -0.00   0.73   0.15
     13:    0.23   0.28   0.00   0.01   1.25  -0.00   0.04   1.43   0.00   0.00  -0.00   0.00  -0.51  -1.73
     17:    0.00   0.00   0.00   0.00  -0.00   0.00  -0.00   0.00   0.60   0.00   1.12   0.02  -0.00  -0.00
     21:    0.24   3.99   0.00   0.02   0.01   0.00  -0.05  -0.01  -0.00   0.00  -0.00  -0.00  -0.25   0.01
     22:   -0.08   0.11   0.00  -0.16  -0.03   0.00  -0.02  -0.00  -0.00  -0.00   0.00   0.00  -2.68  -0.21
     25:    7.85   1.92   3.90  10.10   2.97   0.00   6.48   0.25  -0.00   0.00   0.00   0.00   0.53  -0.74
     26:    0.17   0.21   0.54   0.24   0.86  -0.00   1.99  -0.10  -0.00  -0.00  -0.00  -0.00  -0.37  -8.91
     28:    0.00   0.00   0.00  -0.00  -0.00  17.32   0.00   0.00  26.11   5.56  22.27  12.14   0.00   0.00
     29:    0.00   0.00   0.00  -0.00  -0.00  -0.98   0.00   0.00   0.10   0.02  -2.49  -1.36   0.00   0.00
     31:    2.89   0.70  10.69   5.11  -0.07  -0.00  -0.12   8.24   0.00   0.00   0.00   0.00   0.19  -0.37
     32:    0.07   0.08   1.50   0.94  -0.12   0.00  -0.28   2.88  -0.00   0.00  -0.00   0.00  -0.13  -1.13
     40:    0.24   4.00   0.00   0.01   0.01   0.00  -0.04  -0.02   0.00   0.00  -0.00   0.00  -0.24   0.04
     41:   -0.08   0.11   0.00  -0.11  -0.07   0.00  -0.01  -0.01   0.00   0.00   0.00  -0.00  -2.69  -0.60
     44:    8.24   2.00   3.35   7.23   6.50   0.00   6.80  -0.16  -0.00  -0.00  -0.00  -0.00   0.56   0.46
     45:    0.18   0.22   0.46  -0.09   1.22  -0.00   2.18  -0.35  -0.00   0.00  -0.00  -0.00  -0.39  -9.30
     47:   -0.00  -0.00  -0.00   0.00   0.00  17.31   0.00   0.00  21.08  10.60  28.89   5.53  -0.00   0.00
     48:   -0.00  -0.00  -0.00  -0.00   0.00  -0.98  -0.00   0.00   0.08   0.04  -3.23  -0.62  -0.00  -0.00
     50:    2.50   0.60  11.22   4.01   0.40   0.00   0.26   7.99   0.00   0.00  -0.00  -0.00   0.17   0.26
     51:    0.06   0.07   1.57   1.14  -0.34   0.00  -0.15   2.81  -0.00  -0.00  -0.00   0.00  -0.12  -1.76
     59:    0.24   4.04   0.00  -0.00   0.03  -0.00  -0.00  -0.06   0.00   0.00   0.00   0.00  -0.24   0.01
     60:   -0.08   0.11   0.00  -0.00  -0.18   0.00  -0.00  -0.02  -0.00  -0.00   0.00   0.00  -2.69  -0.11
     63:    0.01   0.00  14.43   0.43  -0.00  -0.00   9.00   0.19   0.00   0.00   0.00  -0.00   0.00  -1.73
     64:    0.00  -0.00   1.99   0.66   0.01   0.00   3.00   0.06  -0.00   0.00   0.00  -0.00  -0.00  -8.05
     66:    0.00   0.00   0.00  -0.00   0.00  17.21   0.00   0.00   0.28  31.49   0.42  34.08   0.00   0.00
     67:    0.00   0.00   0.00  -0.00   0.00  -0.98   0.00   0.00   0.00   0.11  -0.05  -3.81   0.00   0.00
     69:   10.70   2.58   0.01   0.32  17.48  -0.00   0.12   5.75   0.00  -0.00   0.00  -0.00   0.73   0.15
     70:    0.23   0.28   0.00   0.01   1.25  -0.00   0.04   1.43  -0.00  -0.00  -0.00  -0.00  -0.51  -1.72
     74:    0.00   0.00   0.00  -0.00   0.00   0.00  -0.00   0.00   0.60   0.00   1.12   0.02   0.00   0.00
     78:    0.24   4.05  -0.00   0.03   0.01  -0.00  -0.05  -0.01   0.00   0.00   0.00  -0.00  -0.24   0.01
     79:   -0.08   0.11   0.00  -0.16  -0.03   0.00  -0.02  -0.00   0.00   0.00  -0.00  -0.00  -2.70  -0.21
     82:    7.78   1.96   3.86  10.14   2.93   0.00   6.48   0.27   0.00  -0.00   0.00   0.00   0.53  -0.75
     83:    0.17   0.21   0.54   0.24   0.86  -0.00   1.99  -0.09   0.00  -0.00   0.00  -0.00  -0.37  -8.92
     85:   -0.00  -0.00  -0.00   0.00  -0.00  17.12  -0.00   0.00  26.30   5.55  22.41  12.17   0.00  -0.00
     86:   -0.00  -0.00  -0.00   0.00   0.00  -0.98  -0.00   0.00   0.09   0.02  -2.50  -1.36   0.00   0.00
     88:    2.87   0.71  10.50   5.13  -0.06  -0.00  -0.12   8.54   0.00  -0.00  -0.00   0.00   0.20  -0.37
     89:    0.06   0.07   1.43   0.92  -0.10  -0.00  -0.28   2.93   0.00   0.00  -0.00   0.00  -0.14  -1.13
     97:    0.24   4.05   0.00   0.02   0.02  -0.00  -0.04  -0.02   0.00   0.00  -0.00  -0.00  -0.24   0.04
     98:   -0.08   0.11   0.00  -0.11  -0.07  -0.00  -0.01  -0.01   0.00   0.00   0.00  -0.00  -2.70  -0.61
    101:    8.17   2.04   3.34   7.28   6.44   0.00   6.79  -0.16   0.00   0.00  -0.00   0.00   0.56   0.45
    102:    0.18   0.22   0.47  -0.09   1.21  -0.00   2.19  -0.35  -0.00   0.00  -0.00  -0.00  -0.39  -9.35
    104:   -0.00   0.00   0.00  -0.00   0.00  17.13   0.00   0.00  21.26  10.59  29.05   5.52   0.00   0.00
    105:    0.00   0.00   0.00  -0.00   0.00  -0.98   0.00   0.00   0.07   0.04  -3.24  -0.62   0.00  -0.00
    107:    2.48   0.61  11.03   4.02   0.41   0.00   0.27   8.29  -0.00   0.00  -0.00   0.00   0.17   0.27
    108:    0.05   0.06   1.50   1.12  -0.31  -0.00  -0.15   2.85   0.00  -0.00  -0.00  -0.00  -0.12  -1.73
    115:    5.58   9.12   0.00  11.09   1.87   0.00  11.31   2.04   0.00   0.00   0.00   0.00   7.81   7.42
    116:   -0.02   0.16  -0.00   0.13   0.02   0.00  -0.17  -0.03   0.00   0.00   0.00   0.00  11.27  11.04
    121:    5.57   9.09   0.00   8.13   4.87   0.00   8.58   4.79   0.00   0.00   0.00  -0.00   7.82  21.77
    122:   -0.02   0.16  -0.00   0.10   0.06  -0.00  -0.12  -0.07   0.00  -0.00   0.00   0.00  11.28  32.35
    125:    0.00   0.00   0.00   0.00   0.00   0.26   0.00  -0.00   0.55   0.28   1.15   0.22   0.00  -0.00
    127:    5.52   9.10   0.00   0.25  12.76   0.00   0.18  13.18  -0.00   0.00   0.00   0.00   7.81   3.76
    128:   -0.02   0.16  -0.00   0.00   0.16  -0.00  -0.00  -0.19   0.00   0.00   0.00   0.00  11.27   5.60
    131:    0.00  -0.00  -0.00   0.00   0.00   0.25   0.00   0.00   0.01   0.82   0.02   1.35   0.00  -0.00
    133:    5.51   9.28   0.00  11.06   1.82   0.00  11.27   2.07  -0.00   0.00   0.00   0.00   7.79   7.42
    134:   -0.02   0.16  -0.00   0.13   0.02  -0.00  -0.17  -0.03  -0.00   0.00   0.00   0.00  11.27  11.04
    139:    5.51   9.24   0.00   8.14   4.77  -0.00   8.52   4.83   0.00  -0.00   0.00   0.00   7.81  21.79
    140:   -0.02   0.16  -0.00   0.10   0.06  -0.00  -0.13  -0.07  -0.00  -0.00   0.00  -0.00  11.29  32.39
    143:   -0.00  -0.00  -0.00  -0.00   0.00   0.25  -0.00  -0.00   0.56   0.28   1.15   0.22   0.00  -0.00
    145:    5.53   9.08   0.00   0.22  12.80   0.00   0.20  13.16  -0.00  -0.00   0.00   0.00   7.81   3.76
    146:   -0.02   0.16  -0.00   0.00   0.16  -0.00  -0.00  -0.19  -0.00   0.00  -0.00  -0.00  11.28   5.58
    149:    0.00   0.00   0.00  -0.00   0.00   0.25   0.00   0.00   0.01   0.82   0.02   1.35   0.00   0.00


 Summation over all MOs, multiplied by occupation: Total SFO Gross Populations in this Irrep
 ===========================================================================================

     2.00    1.07   -0.01   -0.00   -0.00    0.84    0.07   -0.01    0.98   -0.02   -0.00    0.81
     0.03   -0.01    0.02    0.01    0.01    0.02    0.00    2.00    1.07   -0.01   -0.00   -0.00
     0.82    0.04   -0.01    0.98   -0.02   -0.00    0.83    0.06   -0.01    0.02    0.01    0.01
     0.02    0.01    2.00    1.07   -0.01   -0.00   -0.00    0.82    0.04   -0.01    0.98   -0.02
    -0.00    0.83    0.06   -0.01    0.02    0.01    0.01    0.02    0.01    2.00    1.07   -0.01
    -0.00   -0.00    0.84    0.07   -0.01    0.98   -0.02   -0.00    0.81    0.03   -0.01    0.02
     0.01    0.01    0.02    0.00    2.00    1.07   -0.01   -0.00   -0.00    0.82    0.04   -0.01
     0.98   -0.02   -0.00    0.83    0.06   -0.01    0.02    0.01    0.01    0.02    0.01    2.00
     1.07   -0.01   -0.00   -0.00    0.82    0.04   -0.01    0.98   -0.02   -0.00    0.84    0.06
    -0.01    0.02    0.01    0.01    0.02    0.01    1.11   -0.00   -0.00    0.03    0.02    0.02
     1.11   -0.00   -0.00    0.03    0.02    0.02    1.11   -0.00   -0.00    0.02    0.02    0.03
     1.11   -0.00   -0.00    0.03    0.02    0.02    1.11   -0.00   -0.00    0.03    0.02    0.02
     1.11   -0.00   -0.00    0.02    0.02    0.03



 List of all MOs, ordered by energy, with the most significant SFO gross populations
 ===================================================================================

 Each percentage contribution in the table below corresponds to the indicated SFO.
 In general, a SFO may be a linear combination of several Fragment Orbitals on the same,
 or on symmetry-related Fragments. Only the first 'member' of such a combination is
 specified here. A full definition of all SFOs is given in an earlier part of the output.
 The numbering of the SFOs in this table does NOT include the Core Orbitals, and starts
 from one for each symmetry representation, as in the SFO definition list earlier.

       E(eV)  Occ       MO           %     SFO (first member)   E(eV)  Occ   Fragment
 -------------------------------------------------------------------------------------

     -21.394  2.00     7 A         14.69%     2 S             -13.876  2.00     2 C
                                   14.68%     2 S             -13.876  2.00     3 C
                                   14.60%     2 S             -13.876  2.00     1 C
                                   14.59%     2 S             -13.876  2.00     4 C
                                   14.51%     2 S             -13.876  2.00     6 C
                                   14.50%     2 S             -13.876  2.00     5 C
                                    2.37%     1 P:z            -5.403  0.67     1 C
                                    2.37%     1 P:z            -5.403  0.67     4 C
                                    1.83%     1 P:x            -5.403  0.67     3 C
                                    1.82%     1 P:x            -5.403  0.67     6 C
                                    1.74%     1 P:x            -5.403  0.67     2 C
                                    1.73%     1 P:x            -5.403  0.67     5 C
                                    1.25%     1 S              -6.626  1.00     7 H
                                    1.25%     1 S              -6.626  1.00     8 H
                                    1.24%     1 S              -6.626  1.00    12 H
                                    1.23%     1 S              -6.626  1.00     9 H
                                    1.23%     1 S              -6.626  1.00    10 H
                                    1.23%     1 S              -6.626  1.00    11 H
     -18.622  2.00     8 A         20.87%     2 S             -13.876  2.00     5 C
                                   20.70%     2 S             -13.876  2.00     2 C
                                   12.94%     2 S             -13.876  2.00     6 C
                                   12.79%     2 S             -13.876  2.00     3 C
                                    5.51%     1 P:x            -5.403  0.67     1 C
                                    5.50%     1 P:x            -5.403  0.67     4 C
                                    5.13%     1 S              -6.626  1.00    10 H
                                    5.11%     1 S              -6.626  1.00     7 H
                                    3.18%     1 S              -6.626  1.00    11 H
                                    3.15%     1 S              -6.626  1.00     8 H
                                    2.38%     1 P:z            -5.403  0.67     3 C
                                    2.36%     1 P:z            -5.403  0.67     6 C
                                   -1.63%     2 P:x             4.709  0.00     1 C
                                   -1.62%     2 P:x             4.709  0.00     4 C
     -18.619  2.00     9 A         22.13%     2 S             -13.876  2.00     1 C
                                   22.09%     2 S             -13.876  2.00     4 C
                                   10.20%     2 S             -13.876  2.00     3 C
                                   10.19%     2 S             -13.876  2.00     6 C
                                    5.45%     1 S              -6.626  1.00    12 H
                                    5.44%     1 S              -6.626  1.00     9 H
                                    3.52%     1 P:z            -5.403  0.67     2 C
                                    3.46%     1 P:z            -5.403  0.67     5 C
                                    2.52%     1 S              -6.626  1.00     8 H
                                    2.50%     1 S              -6.626  1.00    11 H
                                    2.29%     2 S             -13.876  2.00     2 C
                                    2.27%     2 S             -13.876  2.00     5 C
                                    2.02%     1 P:z            -5.403  0.67     3 C
                                    1.97%     1 P:z            -5.403  0.67     6 C
                                    1.66%     1 P:x            -5.403  0.67     2 C
                                    1.65%     1 P:x            -5.403  0.67     5 C
[...]
 iter.  8 V(1) measure  0.8938807676732E+05
        8        delta  0.4443437787413E+00
 CRIT  8.458713497926246E-002
 iter.  9 V(1) measure  0.8938772533218E+05
        9        delta  0.3514351375197E+00
 CRIT  2.508542903826792E-002
 iter. 10 V(1) measure  0.8938766916370E+05
       10        delta  0.5616848400678E-01
 *** convergence reached

    RRIJmat_z_z         
    using first order VWN potential
 
    NOTE: We will NOT use the GGA kernel (input option ALDA was set)
 
 CRIT   1.00000000000000     
 iter.  1 V(1) measure  0.1302440558241E+04
 *** convergence criterion : .1302441E-02
 CRIT   160.042148811486     
 iter.  2 V(1) measure  0.1073511239001E+04
        2        delta  0.2289293192401E+03
 CRIT   60.5790538388190     
 iter.  3 V(1) measure  0.1109083981372E+04
        3        delta  0.3557274237052E+02
 CRIT   15.6641911194707     
 iter.  4 V(1) measure  0.1114125222065E+04
        4        delta  0.5041240693506E+01
 CRIT   3.69026120713023     
 iter.  5 V(1) measure  0.1115199315652E+04
        5        delta  0.1074093587214E+01
 CRIT   2.41788394761245     
 iter.  6 V(1) measure  0.1115662656316E+04
        6        delta  0.4633406637984E+00
 CRIT  0.830024982079427     
 iter.  7 V(1) measure  0.1115709553157E+04
        7        delta  0.4689684072673E-01
 CRIT  0.422097065984323     
 iter.  8 V(1) measure  0.1115711974491E+04
        8        delta  0.2421334172368E-02
 CRIT  7.282404627292637E-002
 iter.  9 V(1) measure  0.1115709517458E+04
        9        delta  0.2457033136352E-02
 CRIT  5.031784402374405E-002
 iter. 10 V(1) measure  0.1115707851143E+04
       10        delta  0.1666314553859E-02
 CRIT  5.121546527666877E-003
 iter. 11 V(1) measure  0.1115707970727E+04
       11        delta  0.1195830936922E-03
 *** convergence reached
 ------------------------------------------
 Convergence acceleration: T
 QUADRUPOLE-QUADRUPOLE POLARIZABILITY     
 Frequency  =  0.1322975682     Hartrees
 Wavelength =   344.4005294     nm
 Wavenumber =   29035.96001     cm^{-1}
 Energy     =   3.600000000     eV
 ------------------------------------------
 QUADRUPOLE-QUADRUPOLE Polarizability tensor:
 
 xx xx     4188.87097290449     
 xx xy     2.98287664697041     
 xx xz   -0.193404043153870     
 xx yy    -4991.66973889908     
 xx yz   -0.386660899719918     
 xx zz     802.798765994545     
 xy xx     2.98326448652984     
 xy xy     12591.5481434794     
 xy xz    0.174043094537772     
 xy yy    0.791957459813262     
 xy yz   -0.673881668431842     
 xy zz    -3.77522194631831     
 xz xx   -0.193756946932328     
 xz xy    0.176067508654384     
 xz xz     1693.67320938530     
 xz yy    0.146850367482582     
 xz yz     3.35501385940059     
 xz zz    4.690657944503615E-002
 yy xx    -4991.76328967608     
 yy xy    0.688295723062733     
 yy xz    0.139274580078344     
 yy yy     9983.82141382304     
 yy yz    7.662387841853069E-002
 yy zz    -4992.05812414696     
 yz xx   -0.385789409374493     
 yz xy   -0.705905903460918     
 yz xz     3.34495574485208     
 yz yy    8.701939471449283E-002
 yz yz     12590.9581306262     
 yz zz    0.298770014643887     
 zz xx     802.809057815426     
 zz xy    -3.77965866978220     
 zz xz    5.310035030004743E-002
 zz yy    -4991.99459408552     
 zz yz    0.299132174453578     
 zz zz     4189.18553627008     
 
 Imaginary QUADRUPOLE-QUADRUPOLE Polarizability tensor:
 
 xx xx     18.7050429601281     
 xx xy    4.178347326288140E-002
 xx xz   -1.888462636395220E-003
 xx yy    -21.5557431694848     
 xx yz   -7.849440703668970E-003
 xx zz     2.85070020935669     
 xy xx    4.188088459204081E-002
 xy xy     124.985917266872     
 xy xz    4.286839064784794E-003
 xy yy    4.302471044724505E-002
 xy yz    5.855145861460747E-004
 xy zz   -8.490559503950396E-002
 xz xx   -1.700171077618746E-003
 xz xy    3.931262394346994E-003
 xz xz     7.93238189385099     
 xz yy    1.209850407309618E-003
 xz yz    6.326941863032512E-002
 xz zz    4.903206703550542E-004
 yy xx    -21.6307291032458     
 yy xy    0.510361809084636     
 yy xz    1.189456813612123E-003
 yy yy     43.2646491649311     
 yy yz    5.081013984785045E-002
 yy zz    -21.6339200616851     
 yz xx   -8.277789381705447E-003
 yz xy    8.590183104671264E-004
 yz xz    6.325869659176971E-002
 yz yy    4.018859624563869E-003
 yz yz     124.958703443839     
 yz zz    4.258929756766706E-003
 zz xx     2.85034377013683     
 zz xy   -8.494350650399782E-002
 zz xz    5.798995048576015E-004
 zz yy    -21.5589305121638     
 zz yz    3.776782535814525E-003
 zz zz     18.7085867420274     



 =======================================================================
 Electrostatic potential at the Nuclei due to electrons and other nuclei
 =======================================================================
  
         Atom                  Potential
         ----                  ---------
     1)   C                  14.76890216
     2)   C                  14.76888338
     3)   C                  14.76883481
     4)   C                  14.76888953
     5)   C                  14.76870453
     6)   C                  14.76865654
     7)   H                   1.10113167
     8)   H                   1.10121341
     9)   H                   1.10157346
    10)   H                   1.10105720
    11)   H                   1.10114184
    12)   H                   1.10157528
 
 
 ========================
 No memory problems found
 ========================
 
 Maximum number of active allocate calls:        1279
 
 *******************************************************************************

                             A D F   E X I T
 NORMAL TERMINATION



 =================
 Timing Statistics
 =================
  
 Total Used :                     CPU=       41.86      System=        0.63     Elapsed=       42.97

 Calls  Section                     ( Mean, Percentage )
 ---------------------------------------------------------------------------------------------------
     3  ><      ................      0.00    0.01             0.00    0.00             0.00    0.01
     1  INIT    ................      0.53    1.27             0.01    1.54             0.54    1.27
     1  GEOMET  ................      0.05    0.12             0.00    0.64             0.05    0.13
     1  FRAGM   ................      0.02    0.04             0.03    4.41             0.04    0.10
     1  INPUTA  ................      0.00    0.01             0.00    0.00             0.00    0.01
     1  ATDEN   ................      0.00    0.00             0.00    0.64             0.01    0.01
     1  MAINSY  ................      0.02    0.06             0.01    1.27             0.03    0.08
     1  SYMFIT  ................      0.01    0.02             0.00    0.01             0.01    0.02
     1  CORORT  ................      0.00    0.00             0.00    0.00             0.00    0.00
     1  SYMORB  ................      0.00    0.01             0.00    0.00             0.00    0.01
     1  CLSMAT  ................      0.02    0.05             0.00    0.00             0.02    0.05
     1  ORTHON  ................      0.01    0.03             0.00    0.64             0.02    0.04
     1  GENPT   ................      0.12    0.28             0.01    1.28             0.12    0.29
     1  PTBAS   ................      0.08    0.18             0.01    1.89             0.09    0.21
    12  FOCKY   ................      0.28    8.12             0.00    7.79             0.29    8.21
    12  FOCKTR  ................      0.00    0.09             0.00    0.03             0.00    0.09
    12  SDIIS   ................      0.00    0.14             0.00    0.62             0.01    0.15
     1  COREPS  ................      0.22    0.52             0.00    0.62             0.23    0.52
     1  TOTEN   ................      1.04    2.48             0.02    3.83             1.07    2.49
     1  POPAN   ................      0.01    0.02             0.00    0.00             0.01    0.02
     1  DEBYE   ................      0.01    0.03             0.00    0.48             0.02    0.04
     1  INPUTE  ................      0.00    0.00             0.00    0.16             0.00    0.00
     1  SYMORE  ................      0.00    0.00             0.00    0.00             0.00    0.00
     1  METS    ................      0.00    0.00             0.00    0.00             0.00    0.00
     1  CETS    ................      0.01    0.03             0.00    0.00             0.01    0.03
     1  ELNRGY  ................      0.01    0.03             0.00    0.62             0.01    0.03
     1  POPUL   ................      0.01    0.03             0.00    0.02             0.01    0.03
     1  AORESPONSE .............     36.16   86.37             0.46   72.88            36.99   86.10
     1  EXIT PROCEDURE .........      0.03    0.06             0.00    0.64             0.03    0.07


 Currently Open Files (EXIT00)
 ====================

 Unit    Access Format  Status   Type       Ident (file)
 -------------------------------------------------------
   3      SEQ    FORM   TRANSP  NORMAL      LOGFILE
                                          ( logfile )

 ***************************************************************************************************
 (LOGFILE)
 <Sep29-2020> <15:22:13>  ADF 2019  RunTime: Sep29-2020 15:22:13  Nodes: 1  Procs: 1
 <Sep29-2020> <15:22:13>  Hydrogen (TZP)
 <Sep29-2020> <15:22:13>  RunType   : CREATE
 <Sep29-2020> <15:22:13>  Net Charge: 0 (Nuclei minus Electrons)
 <Sep29-2020> <15:22:13>  Symmetry  : ATOM
  Coordinates
    Atom         X           Y           Z   (Angstrom)
    1.H         0.000000    0.000000    0.000000
 <Sep29-2020> <15:22:13>  >>>> CORORT
 <Sep29-2020> <15:22:13>  >>>> CLSMAT
 <Sep29-2020> <15:22:13>  >>>> ORTHON
 <Sep29-2020> <15:22:13>  >>>> GENPT
 <Sep29-2020> <15:22:13>  Block Length=  64
 <Sep29-2020> <15:22:13>  >>>> PTBAS
 <Sep29-2020> <15:22:13>  >>>> CYCLE
 <Sep29-2020> <15:22:13>              |Error|         MaxErr       Wt(A-DIIS)
 <Sep29-2020> <15:22:13>      1      0.00000000      0.00000000
 <Sep29-2020> <15:22:13>      2      0.03052909      0.02968459
 <Sep29-2020> <15:22:13>      3      0.00718138      0.00670742    100.0
 <Sep29-2020> <15:22:13>      4      0.00117303      0.00114116      0.1
 <Sep29-2020> <15:22:13>      5      0.00002783      0.00002380      0.0
 <Sep29-2020> <15:22:13>      6      0.00000153      0.00000130      0.0
 <Sep29-2020> <15:22:13>      7      0.00000000      0.00000000      0.0
 <Sep29-2020> <15:22:13>  SCF converged
 <Sep29-2020> <15:22:13>      8      0.00000000      0.00000000      0.0
 <Sep29-2020> <15:22:13>  >>>> POPAN
 <Sep29-2020> <15:22:13>  >>>> DEBYE
 <Sep29-2020> <15:22:13>  NORMAL TERMINATION
 <Sep29-2020> <15:22:13>  END
 <Sep29-2020> <15:22:13>  ADF 2019  RunTime: Sep29-2020 15:22:13  Nodes: 1  Procs: 1
 <Sep29-2020> <15:22:13>  Carbon (TZP)
 <Sep29-2020> <15:22:13>  RunType   : CREATE
 <Sep29-2020> <15:22:13>  Net Charge: 0 (Nuclei minus Electrons)
 <Sep29-2020> <15:22:13>  Symmetry  : ATOM
  Coordinates
    Atom         X           Y           Z   (Angstrom)
    1.C         0.000000    0.000000    0.000000
 <Sep29-2020> <15:22:13>  >>>> CORORT
 <Sep29-2020> <15:22:13>  >>>> CLSMAT
 <Sep29-2020> <15:22:13>  >>>> ORTHON
 <Sep29-2020> <15:22:13>  >>>> GENPT
 <Sep29-2020> <15:22:13>  Block Length=  72
 <Sep29-2020> <15:22:13>  >>>> PTBAS
 <Sep29-2020> <15:22:13>  >>>> CYCLE
 <Sep29-2020> <15:22:14>              |Error|         MaxErr       Wt(A-DIIS)
 <Sep29-2020> <15:22:14>      1      0.00000000      0.00000000
 <Sep29-2020> <15:22:14>      2      4.48324754      3.31969244    100.0
 <Sep29-2020> <15:22:14>      3      1.61537707      1.30410194    100.0
 <Sep29-2020> <15:22:14>      4      0.72706284      0.59053131    100.0
 <Sep29-2020> <15:22:14>      5      0.40898688      0.33263800    100.0
 <Sep29-2020> <15:22:14>      6      0.13548919      0.10594416    100.0
 <Sep29-2020> <15:22:14>      7      0.11406432      0.09088019     90.8
 <Sep29-2020> <15:22:14>      8      0.01170325      0.00926551      8.3
 <Sep29-2020> <15:22:14>      9      0.00078015      0.00061791      0.0
 <Sep29-2020> <15:22:14>     10      0.00000178      0.00000107      0.0
 <Sep29-2020> <15:22:14>     11      0.00000024      0.00000019      0.0
 <Sep29-2020> <15:22:14>     12      0.00000000      0.00000000      0.0
 <Sep29-2020> <15:22:14>  SCF converged
 <Sep29-2020> <15:22:14>     13      0.00000000      0.00000000      0.0
 <Sep29-2020> <15:22:14>  >>>> POPAN
 <Sep29-2020> <15:22:14>  >>>> DEBYE
 <Sep29-2020> <15:22:14>  NORMAL TERMINATION
 <Sep29-2020> <15:22:14>  END
 <Sep29-2020> <15:22:14>  ADF 2019  RunTime: Sep29-2020 15:22:14  Nodes: 1  Procs: 6
 <Sep29-2020> <15:22:15>  None
 <Sep29-2020> <15:22:15>  RunType   : SINGLE POINT
 <Sep29-2020> <15:22:15>  Net Charge: 0 (Nuclei minus Electrons)
 <Sep29-2020> <15:22:15>  Symmetry  : NOSYM
 <Sep29-2020> <15:22:15>  >>>> FRAGM
  Coordinates
    Atom         X           Y           Z   (Angstrom)
    1.C         0.028912    4.000000   -1.398584
    2.C        -1.196794    4.000000   -0.724771
    3.C        -1.226547    4.000000    0.673118
    4.C        -0.030488    4.000000    1.398616
    5.C         1.197206    4.000000    0.725829
    6.C         1.226853    4.000000   -0.674282
    7.H        -2.128994    4.000000   -1.292283
    8.H        -2.181899    4.000000    1.200943
    9.H        -0.050153    4.000000    2.490201
   10.H         2.131206    4.000000    1.290722
   11.H         2.184401    4.000000   -1.198657
   12.H         0.055747    4.000000   -2.489999
 <Sep29-2020> <15:22:15>  >>>> CORORT
 <Sep29-2020> <15:22:15>  >>>> CLSMAT
 <Sep29-2020> <15:22:15>  >>>> ORTHON
 <Sep29-2020> <15:22:15>  >>>> GENPT
 <Sep29-2020> <15:22:15>  Block Length= 128
 <Sep29-2020> <15:22:15>  >>>> PTBAS
 <Sep29-2020> <15:22:15>  >>>> CYCLE
 <Sep29-2020> <15:22:16>              |Error|         MaxErr       Wt(A-DIIS)
 <Sep29-2020> <15:22:16>      1      5.99093306      0.98097460
 <Sep29-2020> <15:22:16>      2      0.89232787      0.18711787    100.0
 <Sep29-2020> <15:22:16>      3      0.52145252      0.10260608    100.0
 <Sep29-2020> <15:22:17>      4      0.74325382      0.17265909    100.0
 <Sep29-2020> <15:22:17>      5      0.07622717      0.01073650      9.8
 <Sep29-2020> <15:22:17>      6      0.01077221      0.00181979      0.8
 <Sep29-2020> <15:22:17>      7      0.00237444      0.00055634      0.0
 <Sep29-2020> <15:22:18>      8      0.00202969      0.00046538      0.0
 <Sep29-2020> <15:22:18>      9      0.00008390      0.00002336      0.0
 <Sep29-2020> <15:22:18>     10      0.00010294      0.00002603      0.0
 <Sep29-2020> <15:22:19>     11      0.00000132      0.00000034      0.0
 <Sep29-2020> <15:22:19>  SCF converged
 <Sep29-2020> <15:22:19>     12      0.00000027      0.00000007      0.0
 <Sep29-2020> <15:22:19>  >>>> TOTEN
 <Sep29-2020> <15:22:20>  >>>> POPAN
 <Sep29-2020> <15:22:20>  >>>> DEBYE
 <Sep29-2020> <15:22:20>  >>>> AMETS
 <Sep29-2020> <15:22:20>  >>>> POPUL
 <Sep29-2020> <15:22:21>     1 V(1)  0.1844028E+04
 <Sep29-2020> <15:22:21>     2 V(1)  0.1574251E+04
 <Sep29-2020> <15:22:21>     3 V(1)  0.1556949E+04
 <Sep29-2020> <15:22:22>     4 V(1)  0.1563503E+04
 <Sep29-2020> <15:22:22>     5 V(1)  0.1565459E+04
 <Sep29-2020> <15:22:23>     6 V(1)  0.1565337E+04
 <Sep29-2020> <15:22:23>     7 V(1)  0.1565285E+04
 <Sep29-2020> <15:22:23>     8 V(1)  0.1565279E+04
 <Sep29-2020> <15:22:24>     9 V(1)  0.1565275E+04
 <Sep29-2020> <15:22:24>    10 V(1)  0.1565274E+04
 <Sep29-2020> <15:22:24>   convergence reached
 <Sep29-2020> <15:22:24>     1 V(1)  0.2536248E+02
 <Sep29-2020> <15:22:25>     2 V(1)  0.2328918E+02
 <Sep29-2020> <15:22:25>     3 V(1)  0.2328383E+02
 <Sep29-2020> <15:22:26>     4 V(1)  0.2328309E+02
 <Sep29-2020> <15:22:26>     5 V(1)  0.2328297E+02
 <Sep29-2020> <15:22:26>     6 V(1)  0.2328299E+02
 <Sep29-2020> <15:22:26>   convergence reached
 <Sep29-2020> <15:22:27>     1 V(1)  0.1841836E+04
 <Sep29-2020> <15:22:27>     2 V(1)  0.1572271E+04
 <Sep29-2020> <15:22:28>     3 V(1)  0.1555018E+04
 <Sep29-2020> <15:22:28>     4 V(1)  0.1561560E+04
 <Sep29-2020> <15:22:28>     5 V(1)  0.1563515E+04
 <Sep29-2020> <15:22:29>     6 V(1)  0.1563401E+04
 <Sep29-2020> <15:22:29>     7 V(1)  0.1563342E+04
 <Sep29-2020> <15:22:30>     8 V(1)  0.1563336E+04
 <Sep29-2020> <15:22:30>     9 V(1)  0.1563332E+04
 <Sep29-2020> <15:22:30>    10 V(1)  0.1563330E+04
 <Sep29-2020> <15:22:30>   convergence reached
 <Sep29-2020> <15:22:31>     1 V(1)  0.1302788E+04
 <Sep29-2020> <15:22:31>     2 V(1)  0.1073688E+04
 <Sep29-2020> <15:22:32>     3 V(1)  0.1109199E+04
 <Sep29-2020> <15:22:32>     4 V(1)  0.1113867E+04
 <Sep29-2020> <15:22:33>     5 V(1)  0.1115371E+04
 <Sep29-2020> <15:22:33>     6 V(1)  0.1115842E+04
 <Sep29-2020> <15:22:34>     7 V(1)  0.1115900E+04
 <Sep29-2020> <15:22:34>     8 V(1)  0.1115903E+04
 <Sep29-2020> <15:22:34>     9 V(1)  0.1115901E+04
 <Sep29-2020> <15:22:35>    10 V(1)  0.1115899E+04
 <Sep29-2020> <15:22:35>    11 V(1)  0.1115899E+04
 <Sep29-2020> <15:22:35>   convergence reached
 <Sep29-2020> <15:22:36>     1 V(1)  0.1057867E+06
 <Sep29-2020> <15:22:36>     2 V(1)  0.8966100E+05
 <Sep29-2020> <15:22:37>     3 V(1)  0.8876552E+05
 <Sep29-2020> <15:22:37>     4 V(1)  0.8939176E+05
 <Sep29-2020> <15:22:38>     5 V(1)  0.8951065E+05
 <Sep29-2020> <15:22:38>     6 V(1)  0.8950245E+05
 <Sep29-2020> <15:22:39>     7 V(1)  0.8949949E+05
 <Sep29-2020> <15:22:39>     8 V(1)  0.8949907E+05
 <Sep29-2020> <15:22:39>     9 V(1)  0.8949874E+05
 <Sep29-2020> <15:22:40>    10 V(1)  0.8949868E+05
 <Sep29-2020> <15:22:40>   convergence reached
 <Sep29-2020> <15:22:40>     1 V(1)  0.6152147E+03
 <Sep29-2020> <15:22:41>     2 V(1)  0.4703471E+03
 <Sep29-2020> <15:22:41>     3 V(1)  0.4838455E+03
 <Sep29-2020> <15:22:41>     4 V(1)  0.4848735E+03
 <Sep29-2020> <15:22:42>     5 V(1)  0.4856631E+03
 <Sep29-2020> <15:22:42>     6 V(1)  0.4860700E+03
 <Sep29-2020> <15:22:43>     7 V(1)  0.4860940E+03
 <Sep29-2020> <15:22:43>     8 V(1)  0.4860985E+03
 <Sep29-2020> <15:22:43>     9 V(1)  0.4860972E+03
 <Sep29-2020> <15:22:44>    10 V(1)  0.4860964E+03
 <Sep29-2020> <15:22:44>    11 V(1)  0.4860958E+03
 <Sep29-2020> <15:22:45>    12 V(1)  0.4860956E+03
 <Sep29-2020> <15:22:45>   convergence reached
 <Sep29-2020> <15:22:45>     1 V(1)  0.2748754E+04
 <Sep29-2020> <15:22:46>     2 V(1)  0.2507406E+04
 <Sep29-2020> <15:22:46>     3 V(1)  0.2520122E+04
 <Sep29-2020> <15:22:47>     4 V(1)  0.2520404E+04
 <Sep29-2020> <15:22:47>     5 V(1)  0.2520575E+04
 <Sep29-2020> <15:22:47>     6 V(1)  0.2520574E+04
 <Sep29-2020> <15:22:47>   convergence reached
 <Sep29-2020> <15:22:48>     1 V(1)  0.1056612E+06
 <Sep29-2020> <15:22:48>     2 V(1)  0.8954823E+05
 <Sep29-2020> <15:22:49>     3 V(1)  0.8865546E+05
 <Sep29-2020> <15:22:49>     4 V(1)  0.8928080E+05
 <Sep29-2020> <15:22:50>     5 V(1)  0.8939960E+05
 <Sep29-2020> <15:22:50>     6 V(1)  0.8939187E+05
 <Sep29-2020> <15:22:51>     7 V(1)  0.8938852E+05
 <Sep29-2020> <15:22:51>     8 V(1)  0.8938808E+05
 <Sep29-2020> <15:22:52>     9 V(1)  0.8938773E+05
 <Sep29-2020> <15:22:52>    10 V(1)  0.8938767E+05
 <Sep29-2020> <15:22:52>   convergence reached
 <Sep29-2020> <15:22:53>     1 V(1)  0.1302441E+04
 <Sep29-2020> <15:22:53>     2 V(1)  0.1073511E+04
 <Sep29-2020> <15:22:54>     3 V(1)  0.1109084E+04
 <Sep29-2020> <15:22:54>     4 V(1)  0.1114125E+04
 <Sep29-2020> <15:22:54>     5 V(1)  0.1115199E+04
 <Sep29-2020> <15:22:55>     6 V(1)  0.1115663E+04
 <Sep29-2020> <15:22:55>     7 V(1)  0.1115710E+04
 <Sep29-2020> <15:22:56>     8 V(1)  0.1115712E+04
 <Sep29-2020> <15:22:56>     9 V(1)  0.1115710E+04
 <Sep29-2020> <15:22:57>    10 V(1)  0.1115708E+04
 <Sep29-2020> <15:22:57>    11 V(1)  0.1115708E+04
 <Sep29-2020> <15:22:57>   convergence reached
 <Sep29-2020> <15:22:57>  NORMAL TERMINATION
 <Sep29-2020> <15:22:57>  END
