

 Parallel Execution: Process Information
 ==============================================================================
 Rank   Node Name                              NodeID   MyNodeRank  NodeMaster
    0   magnesium.science.psu.edu                 0          0          0
    1   magnesium.science.psu.edu                 0          1         -1
    2   magnesium.science.psu.edu                 0          2         -1
    3   magnesium.science.psu.edu                 0          3         -1
    4   magnesium.science.psu.edu                 0          4         -1
    5   magnesium.science.psu.edu                 0          5         -1
 ==============================================================================


May use up to 7495MB of RAM as shared memory on node 0
 
TITLE None

ATOMS
1  C     0.02804838    4.00000000   -1.39863706
2  C    -1.19614243    4.00000000   -0.72672399
3  C    -1.22590066    4.00000000    0.67515575
4  C    -0.03135691    4.00000000    1.39856824
5  C     1.19785757    4.00000000    0.72387601
6  C     1.22749934    4.00000000   -0.67223895
7  H    -2.13082523    4.00000000   -1.29030893
8  H    -2.18376700    4.00000000    1.19858775
9  H    -0.05161836    4.00000000    2.49013176
10 H     2.12938536    4.00000000    1.29266990
11 H     2.18252241    4.00000000   -1.20102283
12 H     0.05426576    4.00000000   -2.49006824
END

XC
 gga BP86
end

symmetry nosym

aoresponse
 alda
 frequency 1 3.6 eV
 lifetime 0.0037
 El_Dipole_El_Dipole
 El_Dipole_El_Quadrupole
 El_Quadrupole_El_Quadrupole
 Traceless
end

Fragments
H t21.H
C t21.C
End

 *******************************************************************************
 *                                                                             *
 *  -------------------------------------                                      *
 *   Amsterdam Density Functional  (ADF)         2019                          *
 *  -------------------------------------                                      *
 *                                               r75281 2019-06-03             *
 *                                                                             *
 *                                                                             *
 *                              =================                              *
 *                              |               |                              *
 *                              |     A D F     |                              *
 *                              |               |                              *
 *                              =================                              *
 *                                                                             *
 *                                                                             *
 *   Online information and documentation:  https://www.scm.com/support/       *
 *   E-mail:  support@scm.com   info@scm.com                                   *
 *                                                                             *
 *   Scientific publications using ADF results must be properly referenced     *
 *   See the User Manuals (or the web site) for recommended citations          *
 *   The terms and conditions of the End User License Agreement apply to       *
 *   the use of ADF, https://www.scm.com/license-terms/                        *
 *                                                                             *
 **********************  x86_64_linux_intel / intelmpi  ************************
 
 Licensed to: Prof. Lasse Jensen / Penn State University / University Park / PA  / USA
 SCM User ID: u8493
  
 ADF 2019  RunTime: Sep29-2020 15:18:19  Nodes: 1  Procs: 6

 Temporary files are created in /scratch/kid_0.1802574095


Communication costs MPI_COMM_WORLD:      0.394 usec per message,   0.0066 usec per 8-byte item
Communication costs for intra-node:      0.365 usec per message,   0.0066 usec per 8-byte item

 None



 ===========================
 A T T A C H E D   F I L E S
 ===========================
  



 ===============================
 M O D E L   P A R A M E T E R S
 ===============================
  
 DENSITY FUNCTIONAL POTENTIAL (scf)
    LDA:                               VWN                                      
    Gradient Corrections:              Becke88 Perdew86                        == Not Default ==

 SPIN  (restricted / unrestr.)
    Molecule:                          Restricted                               
    Fragments:                         Restricted                               

 OTHER ASPECTS
    Relativistic Corrections:          ---                                      

    Nuclear Charge Density Model:      Point Charge Nuclei                      
    Core Treatment:                    Frozen Orbital(s)                        

    Hyperfine or Zeeman Interaction:   ---                                      


 Fragment File(s)
 ----------------
 C:
         file : t21.C
         jobid: ADF 2019  RunTime: Sep29-2020 15:18:18  Nodes: 1  Procs: 1
         title: Carbon (TZP)
 H:
         file : t21.H
         jobid: ADF 2019  RunTime: Sep29-2020 15:18:18  Nodes: 1  Procs: 1
         title: Hydrogen (TZP)



                                        ************************************
                                        *  R U N   T Y P E : SINGLE POINT  *
                                        ************************************
  



 ===============
 G E O M E T R Y  ***  Planar Molecule  ***
 ===============
  

 ATOMS
 =====                            X Y Z                    CHARGE
                                (Angstrom)             Nucl     +Core       At.Mass
                       --------------------------    ----------------       -------
    1  C               0.0280    4.0000   -1.3986      6.00      6.00       12.0000
    2  C              -1.1961    4.0000   -0.7267      6.00      6.00       12.0000
    3  C              -1.2259    4.0000    0.6752      6.00      6.00       12.0000
    4  C              -0.0314    4.0000    1.3986      6.00      6.00       12.0000
    5  C               1.1979    4.0000    0.7239      6.00      6.00       12.0000
    6  C               1.2275    4.0000   -0.6722      6.00      6.00       12.0000
    7  H              -2.1308    4.0000   -1.2903      1.00      1.00        1.0078
    8  H              -2.1838    4.0000    1.1986      1.00      1.00        1.0078
    9  H              -0.0516    4.0000    2.4901      1.00      1.00        1.0078
   10  H               2.1294    4.0000    1.2927      1.00      1.00        1.0078
   11  H               2.1825    4.0000   -1.2010      1.00      1.00        1.0078
   12  H               0.0543    4.0000   -2.4901      1.00      1.00        1.0078


 FRAGMENTS
 =========                                     Atoms in this Fragment     Cart. coord.s (Angstrom)
                                               -------------------------------------------------------
    1  C                                                 1  C            0.0280    4.0000   -1.3986
    2  C                                                 2  C           -1.1961    4.0000   -0.7267
    3  C                                                 3  C           -1.2259    4.0000    0.6752
    4  C                                                 4  C           -0.0314    4.0000    1.3986
    5  C                                                 5  C            1.1979    4.0000    0.7239
    6  C                                                 6  C            1.2275    4.0000   -0.6722
    7  H                                                 7  H           -2.1308    4.0000   -1.2903
    8  H                                                 8  H           -2.1838    4.0000    1.1986
    9  H                                                 9  H           -0.0516    4.0000    2.4901
   10  H                                                10  H            2.1294    4.0000    1.2927
   11  H                                                11  H            2.1825    4.0000   -1.2010
   12  H                                                12  H            0.0543    4.0000   -2.4901


 Interatomic Distance Matrix (Angstrom)
 --------------------------------------

   1)     0.000
   2)     1.396   0.000
   3)     2.423   1.402   0.000
   4)     2.798   2.424   1.397   0.000
   5)     2.424   2.799   2.424   1.402   0.000
   6)     1.402   2.424   2.799   2.423   1.396   0.000
   7)     2.162   1.091   2.164   3.411   3.891   3.415   0.000
   8)     3.411   2.164   1.092   2.162   3.415   3.891   2.489   0.000
   9)     3.890   3.414   2.162   1.092   2.164   3.411   4.314   2.493   0.000
  10)     3.414   3.891   3.412   2.163   1.091   2.162   4.982   4.314   2.488   0.000
  11)     2.164   3.412   3.891   3.415   2.162   1.092   4.314   4.982   4.315   2.494
          0.000
  12)     1.092   2.162   3.414   3.890   3.411   2.164   2.493   4.315   4.981   4.315
          2.488   0.000

 Min. Distance =    1.0914
 Max. Distance =    4.9822



 =====================================
 S Y M M E T R Y ,   E L E C T R O N S
 =====================================
  
 Symmetry: NOSYM

 Irreducible Representations, including subspecies
 -------------------------------------------------
 A


 Configuration of Valence Electrons
 ==================================
 ( determined in the SCF procedure )

 Total:   42

 Net Charge: 0 (Nuclei minus Electrons)

 Aufbau principle for MO occupations will be applied through SCF cycle no.     150
 Thereafter, the program will assign electrons to MOs that are spatially
 similar to the occupied MOs in a "reference" cycle ("KeepOrbitals").
 The reference cycle is always the PREVIOUS cycle: it will evolve with
 the SCF procedure.
1
 ***************************************************************************************************



                                      ****************************************
                                      *  B U I L D : (Fragments, Functions)  *
                                      ****************************************
  



 =======
 S F O s  ***  (Symmetrized Fragment Orbitals)  ***
 =======
  
 SFOs are linear combinations of (valence) Fragment Orbitals (FOs), such that the SFOs transform as the
 irreducible representations of the (molecular) symmetry group. Each SFO is therefore characterized by
 an irrep of the molecule and by a few (or only one) generating FOs.
 The SFOs constitute a symmetry-adapted basis for the Fock matrix. The MO eigenvector coefficients in
 this basis provide a direct interpretation of the MOs in terms of Frontier Orbital Theory.

 The SFOs are combined with auxiliary Core Functions (CFs) to ensure orthogonalization on the (frozen)
 Core Orbitals (COs). The Core-orthogonalized SFOs (CSFOs) constitute the true Fock basis.

 The FOs, and hence also the (C)SFOs are combinations of the elementary basis functions (BAS). The basis
 functions that participate in the description of the SFOs depend on the irrep. The indices of the
 involved functions are printed below for each irrep.
 (The complete list of primitive basis functions is printed in another section)

 Total nr. of (C)SFOs (summation over all irreps) :   150

 NOTE: a (C)SFO that is defined as a combination of more than one FO is usually NOT normalized.



                                       === A ===
 Nr. of SFOs :  150
 Cartesian basis functions that participate in this irrep (total number =   156) :
      1     2     3     4     5     6     9    12     7    10
     13     8    11    14    15    16    17    18    19    20
     21    22    23    24    25    26    29    32    27    30
     33    28    31    34    35    36    37    38    39    40
     41    42    43    44    45    46    49    52    47    50
     53    48    51    54    55    56    57    58    59    60
     61    62    63    64    65    66    69    72    67    70
     73    68    71    74    75    76    77    78    79    80
     81    82    83    84    85    86    89    92    87    90
     93    88    91    94    95    96    97    98    99   100
    101   102   103   104   105   106   109   112   107   110
    113   108   111   114   115   116   117   118   119   120
    121   122   123   124   125   126   127   128   129   130
    131   132   133   134   135   136   137   138   139   140
    141   142   143   144   145   146   147   148   149   150
    151   152   153   154   155   156

    SFO  (index         Fragment          Generating    Expansion in Fragment Orbitals
  indx  incl.CFs)   Occup   Orb.Energy   FragmentType  Coeff.   Orbital     on Fragment
 --------------------------------------------------------------------------------------
     1       1      2.000     -10.058 au  C             1.00      1 S               1
                        (    -273.681 eV)
     2       2      2.000      -0.510 au  C             1.00      2 S               1
                        (     -13.876 eV)
     3       3       --         0.371 au  C             1.00      3 S               1
                        (      10.091 eV)
     4       4       --         5.428 au  C             1.00      4 S               1
                        (     147.707 eV)
     5       5       --        50.181 au  C             1.00      5 S               1
                        (    1365.486 eV)
     6       6      0.667      -0.199 au  C             1.00      1 P:x             1
                        (      -5.403 eV)
     7       7       --         0.173 au  C             1.00      2 P:x             1
                        (       4.709 eV)
     8       8       --         2.026 au  C             1.00      3 P:x             1
                        (      55.143 eV)
     9       9      0.667      -0.199 au  C             1.00      1 P:y             1
                        (      -5.403 eV)
    10      10       --         0.173 au  C             1.00      2 P:y             1
                        (       4.709 eV)
    11      11       --         2.026 au  C             1.00      3 P:y             1
                        (      55.143 eV)
    12      12      0.667      -0.199 au  C             1.00      1 P:z             1
                        (      -5.403 eV)
    13      13       --         0.173 au  C             1.00      2 P:z             1
                        (       4.709 eV)
    14      14       --         2.026 au  C             1.00      3 P:z             1
                        (      55.143 eV)
    15      15       --         1.232 au  C             1.00      1 D:z2            1
                        (      33.528 eV)
    16      16       --         1.232 au  C             1.00      1 D:x2-y2         1
                        (      33.528 eV)
    17      17       --         1.232 au  C             1.00      1 D:xy            1
                        (      33.528 eV)
    18      18       --         1.232 au  C             1.00      1 D:xz            1
                        (      33.528 eV)
    19      19       --         1.232 au  C             1.00      1 D:yz            1
                        (      33.528 eV)
    20      20      2.000     -10.058 au  C             1.00      1 S               2
                        (    -273.681 eV)
    21      21      2.000      -0.510 au  C             1.00      2 S               2
                        (     -13.876 eV)
    22      22       --         0.371 au  C             1.00      3 S               2
                        (      10.091 eV)
    23      23       --         5.428 au  C             1.00      4 S               2
                        (     147.707 eV)
    24      24       --        50.181 au  C             1.00      5 S               2
                        (    1365.486 eV)
    25      25      0.667      -0.199 au  C             1.00      1 P:x             2
                        (      -5.403 eV)
    26      26       --         0.173 au  C             1.00      2 P:x             2
                        (       4.709 eV)
    27      27       --         2.026 au  C             1.00      3 P:x             2
                        (      55.143 eV)
    28      28      0.667      -0.199 au  C             1.00      1 P:y             2
                        (      -5.403 eV)
    29      29       --         0.173 au  C             1.00      2 P:y             2
                        (       4.709 eV)
    30      30       --         2.026 au  C             1.00      3 P:y             2
                        (      55.143 eV)
    31      31      0.667      -0.199 au  C             1.00      1 P:z             2
                        (      -5.403 eV)
    32      32       --         0.173 au  C             1.00      2 P:z             2
                        (       4.709 eV)
    33      33       --         2.026 au  C             1.00      3 P:z             2
                        (      55.143 eV)
    34      34       --         1.232 au  C             1.00      1 D:z2            2
                        (      33.528 eV)
    35      35       --         1.232 au  C             1.00      1 D:x2-y2         2
                        (      33.528 eV)
    36      36       --         1.232 au  C             1.00      1 D:xy            2
                        (      33.528 eV)
    37      37       --         1.232 au  C             1.00      1 D:xz            2
                        (      33.528 eV)
    38      38       --         1.232 au  C             1.00      1 D:yz            2
                        (      33.528 eV)
    39      39      2.000     -10.058 au  C             1.00      1 S               3
                        (    -273.681 eV)
    40      40      2.000      -0.510 au  C             1.00      2 S               3
                        (     -13.876 eV)
    41      41       --         0.371 au  C             1.00      3 S               3
                        (      10.091 eV)
    42      42       --         5.428 au  C             1.00      4 S               3
                        (     147.707 eV)
    43      43       --        50.181 au  C             1.00      5 S               3
                        (    1365.486 eV)
    44      44      0.667      -0.199 au  C             1.00      1 P:x             3
                        (      -5.403 eV)
    45      45       --         0.173 au  C             1.00      2 P:x             3
                        (       4.709 eV)
    46      46       --         2.026 au  C             1.00      3 P:x             3
                        (      55.143 eV)
    47      47      0.667      -0.199 au  C             1.00      1 P:y             3
                        (      -5.403 eV)
    48      48       --         0.173 au  C             1.00      2 P:y             3
                        (       4.709 eV)
    49      49       --         2.026 au  C             1.00      3 P:y             3
                        (      55.143 eV)
    50      50      0.667      -0.199 au  C             1.00      1 P:z             3
                        (      -5.403 eV)
    51      51       --         0.173 au  C             1.00      2 P:z             3
                        (       4.709 eV)
    52      52       --         2.026 au  C             1.00      3 P:z             3
                        (      55.143 eV)
    53      53       --         1.232 au  C             1.00      1 D:z2            3
                        (      33.528 eV)
    54      54       --         1.232 au  C             1.00      1 D:x2-y2         3
                        (      33.528 eV)
    55      55       --         1.232 au  C             1.00      1 D:xy            3
                        (      33.528 eV)
    56      56       --         1.232 au  C             1.00      1 D:xz            3
                        (      33.528 eV)
    57      57       --         1.232 au  C             1.00      1 D:yz            3
                        (      33.528 eV)
    58      58      2.000     -10.058 au  C             1.00      1 S               4
                        (    -273.681 eV)
    59      59      2.000      -0.510 au  C             1.00      2 S               4
                        (     -13.876 eV)
    60      60       --         0.371 au  C             1.00      3 S               4
                        (      10.091 eV)
    61      61       --         5.428 au  C             1.00      4 S               4
                        (     147.707 eV)
    62      62       --        50.181 au  C             1.00      5 S               4
                        (    1365.486 eV)
    63      63      0.667      -0.199 au  C             1.00      1 P:x             4
                        (      -5.403 eV)
    64      64       --         0.173 au  C             1.00      2 P:x             4
                        (       4.709 eV)
    65      65       --         2.026 au  C             1.00      3 P:x             4
                        (      55.143 eV)
    66      66      0.667      -0.199 au  C             1.00      1 P:y             4
                        (      -5.403 eV)
    67      67       --         0.173 au  C             1.00      2 P:y             4
                        (       4.709 eV)
    68      68       --         2.026 au  C             1.00      3 P:y             4
                        (      55.143 eV)
    69      69      0.667      -0.199 au  C             1.00      1 P:z             4
                        (      -5.403 eV)
    70      70       --         0.173 au  C             1.00      2 P:z             4
                        (       4.709 eV)
    71      71       --         2.026 au  C             1.00      3 P:z             4
                        (      55.143 eV)
    72      72       --         1.232 au  C             1.00      1 D:z2            4
                        (      33.528 eV)
    73      73       --         1.232 au  C             1.00      1 D:x2-y2         4
                        (      33.528 eV)
    74      74       --         1.232 au  C             1.00      1 D:xy            4
                        (      33.528 eV)
    75      75       --         1.232 au  C             1.00      1 D:xz            4
                        (      33.528 eV)
    76      76       --         1.232 au  C             1.00      1 D:yz            4
                        (      33.528 eV)
    77      77      2.000     -10.058 au  C             1.00      1 S               5
                        (    -273.681 eV)
    78      78      2.000      -0.510 au  C             1.00      2 S               5
                        (     -13.876 eV)
    79      79       --         0.371 au  C             1.00      3 S               5
                        (      10.091 eV)
    80      80       --         5.428 au  C             1.00      4 S               5
                        (     147.707 eV)
    81      81       --        50.181 au  C             1.00      5 S               5
                        (    1365.486 eV)
    82      82      0.667      -0.199 au  C             1.00      1 P:x             5
                        (      -5.403 eV)
    83      83       --         0.173 au  C             1.00      2 P:x             5
                        (       4.709 eV)
    84      84       --         2.026 au  C             1.00      3 P:x             5
                        (      55.143 eV)
    85      85      0.667      -0.199 au  C             1.00      1 P:y             5
                        (      -5.403 eV)
    86      86       --         0.173 au  C             1.00      2 P:y             5
                        (       4.709 eV)
    87      87       --         2.026 au  C             1.00      3 P:y             5
                        (      55.143 eV)
    88      88      0.667      -0.199 au  C             1.00      1 P:z             5
                        (      -5.403 eV)
    89      89       --         0.173 au  C             1.00      2 P:z             5
                        (       4.709 eV)
    90      90       --         2.026 au  C             1.00      3 P:z             5
                        (      55.143 eV)
    91      91       --         1.232 au  C             1.00      1 D:z2            5
                        (      33.528 eV)
    92      92       --         1.232 au  C             1.00      1 D:x2-y2         5
                        (      33.528 eV)
    93      93       --         1.232 au  C             1.00      1 D:xy            5
                        (      33.528 eV)
    94      94       --         1.232 au  C             1.00      1 D:xz            5
                        (      33.528 eV)
    95      95       --         1.232 au  C             1.00      1 D:yz            5
                        (      33.528 eV)
    96      96      2.000     -10.058 au  C             1.00      1 S               6
                        (    -273.681 eV)
    97      97      2.000      -0.510 au  C             1.00      2 S               6
                        (     -13.876 eV)
    98      98       --         0.371 au  C             1.00      3 S               6
                        (      10.091 eV)
    99      99       --         5.428 au  C             1.00      4 S               6
                        (     147.707 eV)
   100     100       --        50.181 au  C             1.00      5 S               6
                        (    1365.486 eV)
   101     101      0.667      -0.199 au  C             1.00      1 P:x             6
                        (      -5.403 eV)
   102     102       --         0.173 au  C             1.00      2 P:x             6
                        (       4.709 eV)
   103     103       --         2.026 au  C             1.00      3 P:x             6
                        (      55.143 eV)
   104     104      0.667      -0.199 au  C             1.00      1 P:y             6
                        (      -5.403 eV)
   105     105       --         0.173 au  C             1.00      2 P:y             6
                        (       4.709 eV)
   106     106       --         2.026 au  C             1.00      3 P:y             6
                        (      55.143 eV)
   107     107      0.667      -0.199 au  C             1.00      1 P:z             6
                        (      -5.403 eV)
   108     108       --         0.173 au  C             1.00      2 P:z             6
                        (       4.709 eV)
   109     109       --         2.026 au  C             1.00      3 P:z             6
                        (      55.143 eV)
   110     110       --         1.232 au  C             1.00      1 D:z2            6
                        (      33.528 eV)
   111     111       --         1.232 au  C             1.00      1 D:x2-y2         6
                        (      33.528 eV)
   112     112       --         1.232 au  C             1.00      1 D:xy            6
                        (      33.528 eV)
   113     113       --         1.232 au  C             1.00      1 D:xz            6
                        (      33.528 eV)
   114     114       --         1.232 au  C             1.00      1 D:yz            6
                        (      33.528 eV)
   115     115      1.000      -0.244 au  H             1.00      1 S               7
                        (      -6.626 eV)
   116     116       --         0.093 au  H             1.00      2 S               7
                        (       2.536 eV)
   117     117       --         1.515 au  H             1.00      3 S               7
                        (      41.236 eV)
   118     118       --         0.400 au  H             1.00      1 P:x             7
                        (      10.872 eV)
   119     119       --         0.400 au  H             1.00      1 P:y             7
                        (      10.872 eV)
   120     120       --         0.400 au  H             1.00      1 P:z             7
                        (      10.872 eV)
   121     121      1.000      -0.244 au  H             1.00      1 S               8
                        (      -6.626 eV)
   122     122       --         0.093 au  H             1.00      2 S               8
                        (       2.536 eV)
   123     123       --         1.515 au  H             1.00      3 S               8
                        (      41.236 eV)
   124     124       --         0.400 au  H             1.00      1 P:x             8
                        (      10.872 eV)
   125     125       --         0.400 au  H             1.00      1 P:y             8
                        (      10.872 eV)
   126     126       --         0.400 au  H             1.00      1 P:z             8
                        (      10.872 eV)
   127     127      1.000      -0.244 au  H             1.00      1 S               9
                        (      -6.626 eV)
   128     128       --         0.093 au  H             1.00      2 S               9
                        (       2.536 eV)
   129     129       --         1.515 au  H             1.00      3 S               9
                        (      41.236 eV)
   130     130       --         0.400 au  H             1.00      1 P:x             9
                        (      10.872 eV)
   131     131       --         0.400 au  H             1.00      1 P:y             9
                        (      10.872 eV)
   132     132       --         0.400 au  H             1.00      1 P:z             9
                        (      10.872 eV)
   133     133      1.000      -0.244 au  H             1.00      1 S              10
                        (      -6.626 eV)
   134     134       --         0.093 au  H             1.00      2 S              10
                        (       2.536 eV)
   135     135       --         1.515 au  H             1.00      3 S              10
                        (      41.236 eV)
   136     136       --         0.400 au  H             1.00      1 P:x            10
                        (      10.872 eV)
   137     137       --         0.400 au  H             1.00      1 P:y            10
                        (      10.872 eV)
   138     138       --         0.400 au  H             1.00      1 P:z            10
                        (      10.872 eV)
   139     139      1.000      -0.244 au  H             1.00      1 S              11
                        (      -6.626 eV)
   140     140       --         0.093 au  H             1.00      2 S              11
                        (       2.536 eV)
   141     141       --         1.515 au  H             1.00      3 S              11
                        (      41.236 eV)
   142     142       --         0.400 au  H             1.00      1 P:x            11
                        (      10.872 eV)
   143     143       --         0.400 au  H             1.00      1 P:y            11
                        (      10.872 eV)
   144     144       --         0.400 au  H             1.00      1 P:z            11
                        (      10.872 eV)
   145     145      1.000      -0.244 au  H             1.00      1 S              12
                        (      -6.626 eV)
   146     146       --         0.093 au  H             1.00      2 S              12
                        (       2.536 eV)
   147     147       --         1.515 au  H             1.00      3 S              12
                        (      41.236 eV)
   148     148       --         0.400 au  H             1.00      1 P:x            12
                        (      10.872 eV)
   149     149       --         0.400 au  H             1.00      1 P:y            12
                        (      10.872 eV)
   150     150       --         0.400 au  H             1.00      1 P:z            12
                        (      10.872 eV)



 ================================
 (Slater-type)  F U N C T I O N S  ***  (Basis and Fit)  ***
 ================================
  

 Atom Type    1  (C)
 ==============

 Valence Basis Sets:   9
 -----------------------
   1 S    7.680000
   1 S    5.000000
   2 S    1.280000
   2 S    2.100000
   2 S    4.600000
   2 P    0.820000
   2 P    1.480000
   2 P    2.940000
   3 D    2.200000

 Atom Type    2  (H)
 ==============

 Valence Basis Sets:   4
 -----------------------
   1 S    0.690000
   1 S    0.920000
   1 S    1.580000
   2 P    1.250000


 BAS: List of all Elementary Cartesian Basis Functions
 =====================================================

 The numbering in the list below (to the right of the function characteristics) is referred
 to in print-outs of MO eigenvectors and Mulliken populations in the BAS representation
 (as contrasted to the SFO representation).

 Notes:
 1. The functions are characterized by a polynomial prefactor (powers of x,y,z and r) and
    an exponential decay factor alpha.
 2. Since the basis sets are specific for an atom TYPE, the individual functions occur on
    all atoms of that type.
 3. The word 'Core' in the left margin signals that it is a Core Function (CF) : not a
    degree of freedom in the valence set, but only used to ensure orthogonalization of
    the other valence basis functions on the frozen Core Orbitals.


 (power of) X  Y  Z  R     Alpha  on Atom
            ==========     =====     ==========

 C                                    1    2    3    4    5    6
                                  ---------------------------------------------------------------------------
            0  0  0  0     7.680      1   21   41   61   81  101
            0  0  0  0     5.000      2   22   42   62   82  102
            0  0  0  1     1.280      3   23   43   63   83  103
            0  0  0  1     2.100      4   24   44   64   84  104
            0  0  0  1     4.600      5   25   45   65   85  105
            1  0  0  0     0.820      6   26   46   66   86  106
            0  1  0  0     0.820      7   27   47   67   87  107
            0  0  1  0     0.820      8   28   48   68   88  108
            1  0  0  0     1.480      9   29   49   69   89  109
            0  1  0  0     1.480     10   30   50   70   90  110
            0  0  1  0     1.480     11   31   51   71   91  111
            1  0  0  0     2.940     12   32   52   72   92  112
            0  1  0  0     2.940     13   33   53   73   93  113
            0  0  1  0     2.940     14   34   54   74   94  114
            2  0  0  0     2.200     15   35   55   75   95  115
            1  1  0  0     2.200     16   36   56   76   96  116
            1  0  1  0     2.200     17   37   57   77   97  117
            0  2  0  0     2.200     18   38   58   78   98  118
            0  1  1  0     2.200     19   39   59   79   99  119
            0  0  2  0     2.200     20   40   60   80  100  120

 H                                    7    8    9   10   11   12
                                  ---------------------------------------------------------------------------
            0  0  0  0     0.690    121  127  133  139  145  151
            0  0  0  0     0.920    122  128  134  140  146  152
            0  0  0  0     1.580    123  129  135  141  147  153
            1  0  0  0     1.250    124  130  136  142  148  154
            0  1  0  0     1.250    125  131  137  143  149  155
            0  0  1  0     1.250    126  132  138  144  150  156

 Total number of charge fitting functions (nprimf)       804
 Total number of Cartesian basis functions (naos)        156
 Total number of Cartesian core functions  (ncos)          0

1
 ***************************************************************************************************



                                              ***********************
                                              *  T E C H N I C A L  *
                                              ***********************
  



 =============================================================
 P A R A L L E L I Z A T I O N  and  V E C T O R I Z A T I O N
 =============================================================
  
 Nr of parallel processes:                                6
 Maximum vector length in NumInt loops:                 128



 =====================
 S C F   U P D A T E S
 =====================
  
 Max. nr. of cycles:                               300
 Convergence criterion:                              0.0000010000
   secondary criterion:                              0.0010000000

 Mix parameter (when DIIS does not apply):           0.2000000000
 Mixed ADIIS+SDIIS will be used                  
    Max number of expansion vectors:                10
    Pure ADIIS when Max([F,P]) is above              0.1000000000
    Pure SDIIS when Max([F,P]) is below              0.0010000000
 Automatic ElectronSmearing (in case of problematic SCF convergence) disabled



 =================
 P R E C I S I O N  ***  (General: NumInt, NeglectFunctionTails, ...)  ***
 =================
  

 NumInt:           Target precision:                 4.0000000000
 -------           Initial precision:                4.0000000000
                   Min. precision (optimization):    4.0000000000

 Neglect Functions:          Basis functions:        0.1000000000E-13
 ------------------          Fit functions:          0.1000000000E-13



 ===========================
 L I N E A R   S C A L I N G
 ===========================
  

 Cut-off radii density fit:                        0.1000000000E-07
 Overlap cut-off criterion AO matrix elements:     0.1000000000E-05
 Cut-offs for Coulomb potential and fitted density:0.1000000000E-07
 Cut-off criterion for Coulomb multipole terms:    0.1000000000E-07
 Progressive Convergence parameter:                 0.000000000    
1
 ***************************************************************************************************



                                            ***************************
                                            *  C O M P U T A T I O N  *
                                            ***************************
  

 Number of elements of the density matrix on this node (used, total):      1962     12246



 ===========================================
 Numerical Integration : Fuzzy Cells (Becke)
 ===========================================
  
 Becke grid quality: NORMAL         
  
 Lebedev angular grid order:             min:  11 max:  23
 Nr. of radial points:                   min:  46 max:  52

 Total nr. of points:      75660
 Nr. of blocks:              592
 Block length:               128
 Nr. of dummy points:        116


 Test of Precision of the Numerical Integration Grid
 ===================================================

 Integral of the Total Core Density:                   0.00000000000000



 ========================
 Density Fitting (zlmFit)
 ========================
  
 ZlmFit Fit Quality: NORMAL         
  
 Max L-expansion:                        min:   5 max:   6
 Nr. of radial interpolation points:     min:  36 max:  48



 =====
 S C F  ***  ScaSCF  ***
 =====
  
 Initial density matrix is calculated as sum of fragments

 CYCLE    1
 SCF Error: norm([F,P])=      5.991016674110, max([F,P])=      0.980278947622
 orbitals (Q,E):
 ---------------
 A :12...31          ( 2.00    -0.6583)  ( 2.00    -0.6250)  ( 2.00    -0.5884)  ( 2.00    -0.5691)
                     ( 2.00    -0.5689)  ( 2.00    -0.5031)  ( 2.00    -0.5016)  ( 2.00    -0.5015)
                     ( 2.00    -0.4055)  ( 2.00    -0.4055)  ( 0.00    -0.2151)  ( 0.00    -0.2151)
                     ( 0.00    -0.0768)  ( 0.00    -0.0731)  ( 0.00    -0.0376)  ( 0.00    -0.0375)
                     ( 0.00    -0.0111)  ( 0.00    -0.0111)  ( 0.00     0.0270)  ( 0.00     0.0510)

 CYCLE    2
   MIX coefficients:  0.8000  0.2000
 SCF Error: norm([F,P])=      0.892362899162, max([F,P])=      0.187105979962
 orbitals (Q,E):
 ---------------
 A :12...22          ( 2.00    -0.5946)  ( 2.00    -0.5421)  ( 2.00    -0.5328)  ( 2.00    -0.5022)
                     ( 2.00    -0.5020)  ( 2.00    -0.4366)  ( 2.00    -0.4344)  ( 2.00    -0.4343)
                     ( 2.00    -0.3389)  ( 2.00    -0.3388)  ( 0.00    -0.1501)

 CYCLE    3
  SDIIS (wt  0.000): -1.2669  2.2669
 A-DIIS (wt  1.000):  0.0000  1.0000
  DIIS coefficients:  0.0000  1.0000
 SCF Error: norm([F,P])=      0.521475190651, max([F,P])=      0.102610008237
 orbitals (Q,E):
 ---------------
 A :12...22          ( 2.00    -0.3985)  ( 2.00    -0.3564)  ( 2.00    -0.2966)  ( 2.00    -0.2964)
                     ( 2.00    -0.2951)  ( 2.00    -0.2475)  ( 2.00    -0.2227)  ( 2.00    -0.2227)
                     ( 2.00    -0.1499)  ( 2.00    -0.1498)  ( 0.00     0.0285)

 CYCLE    4
  SDIIS (wt  0.000):  0.1836  0.3522  0.4642
 A-DIIS (wt  1.000):  0.0000  0.6402  0.3598
  DIIS coefficients:  0.0000  0.6402  0.3598
 SCF Error: norm([F,P])=      0.743282636111, max([F,P])=      0.172659862244
 orbitals (Q,E):
 ---------------
 A :12...22          ( 2.00    -0.4673)  ( 2.00    -0.4037)  ( 2.00    -0.3933)  ( 2.00    -0.3709)
                     ( 2.00    -0.3707)  ( 2.00    -0.3293)  ( 2.00    -0.2970)  ( 2.00    -0.2969)
                     ( 2.00    -0.2286)  ( 2.00    -0.2286)  ( 0.00    -0.0404)

 CYCLE    5
  SDIIS (wt  0.902): -0.0172  0.2160  0.0732  0.7280
 A-DIIS (wt  0.098):  0.0000  0.0000  0.0000  1.0000
  DIIS coefficients: -0.0155  0.1947  0.0660  0.7548
 SCF Error: norm([F,P])=      0.076229745893, max([F,P])=      0.010731245801
 orbitals (Q,E):
 ---------------
 A :12...22          ( 2.00    -0.4793)  ( 2.00    -0.4187)  ( 2.00    -0.4084)  ( 2.00    -0.3828)
                     ( 2.00    -0.3825)  ( 2.00    -0.3380)  ( 2.00    -0.3110)  ( 2.00    -0.3109)
                     ( 2.00    -0.2384)  ( 2.00    -0.2383)  ( 0.00    -0.0510)

 CYCLE    6
  SDIIS (wt  0.993): -0.0029  0.0315  0.0082  0.1926  0.7705
 A-DIIS (wt  0.007):  0.0000  0.0000  0.0000  0.0000  1.0000
  DIIS coefficients: -0.0028  0.0313  0.0082  0.1913  0.7721
 SCF Error: norm([F,P])=      0.010711260483, max([F,P])=      0.001696918058
 orbitals (Q,E):
 ---------------
 A :12...22          ( 2.00    -0.4790)  ( 2.00    -0.4180)  ( 2.00    -0.4073)  ( 2.00    -0.3826)
                     ( 2.00    -0.3824)  ( 2.00    -0.3374)  ( 2.00    -0.3104)  ( 2.00    -0.3103)
                     ( 2.00    -0.2377)  ( 2.00    -0.2377)  ( 0.00    -0.0502)

 CYCLE    7
  SDIIS (wt  1.000):  0.0009  0.0020  0.0002  0.0236  0.1239  0.8495
  DIIS coefficients:  0.0009  0.0020  0.0002  0.0236  0.1239  0.8495
 SCF Error: norm([F,P])=      0.001137182121, max([F,P])=      0.000273544205
 orbitals (Q,E):
 ---------------
 A :12...22          ( 2.00    -0.4791)  ( 2.00    -0.4181)  ( 2.00    -0.4075)  ( 2.00    -0.3827)
                     ( 2.00    -0.3824)  ( 2.00    -0.3376)  ( 2.00    -0.3105)  ( 2.00    -0.3104)
                     ( 2.00    -0.2379)  ( 2.00    -0.2378)  ( 0.00    -0.0504)

 CYCLE    8
  SDIIS (wt  1.000):  0.0005  0.0005  0.0000  0.0094  0.0530  0.4274  0.5091
  DIIS coefficients:  0.0005  0.0005  0.0000  0.0094  0.0530  0.4274  0.5091
 SCF Error: norm([F,P])=      0.000335725019, max([F,P])=      0.000093391744
 orbitals (Q,E):
 ---------------
 A :12...22          ( 2.00    -0.4791)  ( 2.00    -0.4181)  ( 2.00    -0.4075)  ( 2.00    -0.3827)
                     ( 2.00    -0.3825)  ( 2.00    -0.3376)  ( 2.00    -0.3105)  ( 2.00    -0.3104)
                     ( 2.00    -0.2379)  ( 2.00    -0.2378)  ( 0.00    -0.0504)

 CYCLE    9
  SDIIS (wt  1.000):  0.0001 -0.0002 -0.0000 -0.0003  0.0001  0.0215  0.3311  0.6478
  DIIS coefficients:  0.0001 -0.0002 -0.0000 -0.0003  0.0001  0.0215  0.3311  0.6478
 SCF Error: norm([F,P])=      0.000164079387, max([F,P])=      0.000050239629
 orbitals (Q,E):
 ---------------
 A :12...22          ( 2.00    -0.4791)  ( 2.00    -0.4181)  ( 2.00    -0.4075)  ( 2.00    -0.3827)
                     ( 2.00    -0.3825)  ( 2.00    -0.3376)  ( 2.00    -0.3105)  ( 2.00    -0.3105)
                     ( 2.00    -0.2379)  ( 2.00    -0.2378)  ( 0.00    -0.0504)

 CYCLE   10
  SDIIS (wt  1.000):  0.0001 -0.0001 -0.0000 -0.0003 -0.0006  0.0101  0.2303  0.4632  0.2974
  DIIS coefficients:  0.0001 -0.0001 -0.0000 -0.0003 -0.0006  0.0101  0.2303  0.4632  0.2974
 SCF Error: norm([F,P])=      0.000044551028, max([F,P])=      0.000012091831
 orbitals (Q,E):
 ---------------
 A :12...22          ( 2.00    -0.4791)  ( 2.00    -0.4181)  ( 2.00    -0.4076)  ( 2.00    -0.3827)
                     ( 2.00    -0.3825)  ( 2.00    -0.3376)  ( 2.00    -0.3105)  ( 2.00    -0.3105)
                     ( 2.00    -0.2379)  ( 2.00    -0.2378)  ( 0.00    -0.0504)

 CYCLE   11
  SDIIS (wt  1.000):  0.0000 -0.0000 -0.0000 -0.0001 -0.0001  0.0013  0.0369  0.0756  0.0996  0.7868
  DIIS coefficients:  0.0000 -0.0000 -0.0000 -0.0001 -0.0001  0.0013  0.0369  0.0756  0.0996  0.7868
 SCF Error: norm([F,P])=      0.000003878393, max([F,P])=      0.000000928909
 orbitals (Q,E):
 ---------------
 A :12...22          ( 2.00    -0.4791)  ( 2.00    -0.4181)  ( 2.00    -0.4076)  ( 2.00    -0.3827)
                     ( 2.00    -0.3825)  ( 2.00    -0.3376)  ( 2.00    -0.3105)  ( 2.00    -0.3105)
                     ( 2.00    -0.2379)  ( 2.00    -0.2378)  ( 0.00    -0.0504)

 SCF CONVERGED

 CYCLE   12
1
 ***************************************************************************************************



                                                *******************
                                                *  R E S U L T S  *
                                                *******************
  
 *** Using FIT density in Focky
  SDIIS (wt  1.000): -0.0000 -0.0000  0.0000 -0.0000 -0.0001 -0.0022 -0.0041  0.0149  0.2694  0.7222
  DIIS coefficients: -0.0000 -0.0000  0.0000 -0.0000 -0.0001 -0.0022 -0.0041  0.0149  0.2694  0.7222
 SCF Error: norm([F,P])=      0.000000870778, max([F,P])=      0.000000115759

 Orbital Energies, per Irrep and Spin:
 ======================================
                        Occup              E (au)              E (eV)       Diff (eV) with prev. cycle
                        -----      --------------------        ------       --------------------------
 A
              12        2.000     -0.47913255310915E+00       -13.038              -1.97E-07
              13        2.000     -0.41810900851615E+00       -11.377               8.39E-08
              14        2.000     -0.40755022531020E+00       -11.090              -4.83E-07
              15        2.000     -0.38269770439390E+00       -10.414              -2.92E-07
              16        2.000     -0.38247410323054E+00       -10.408              -1.78E-07
              17        2.000     -0.33757996614332E+00        -9.186              -5.32E-07
              18        2.000     -0.31053126700184E+00        -8.450              -2.08E-07
              19        2.000     -0.31045541658292E+00        -8.448              -1.99E-07
              20        2.000     -0.23788399251147E+00        -6.473              -5.39E-07
              21        2.000     -0.23782448337709E+00        -6.472              -4.19E-07
              22        0.000     -0.50378415709803E-01        -1.371
              23        0.000     -0.50329989172741E-01        -1.370
              24        0.000      0.20349103653835E-02         0.055
              25        0.000      0.27837350418301E-01         0.757
              26        0.000      0.27861373943842E-01         0.758
              27        0.000      0.60712595842852E-01         1.652
              28        0.000      0.60762043235573E-01         1.653
              29        0.000      0.90662541897544E-01         2.467
              30        0.000      0.96118557262722E-01         2.616
              31        0.000      0.14212203697250E+00         3.867
  
 HOMO :       21 A                -0.23782448337709E+00
 LUMO :       22 A                -0.50378415709803E-01
  


 All Electron Calculation, thus no Orbital Energies of the Core Orbitals are calculated


 Fit test: (difference of exact and fit density, squared integrated, result summed over spins)
         Sum-of-Fragments:                             0.00000000048365
         Orthogonalized Fragments:                     0.00013300486466
         SCF:                                          0.00048712486482



 ==========================
 Electron Density at Nuclei
 ==========================
  
 The electron density is calculated at points on a small sphere around the center of a nucleus.
 The printed electron density is the average electron density on these points.
 The radius of the sphere is the printed approximate finite nuclear radius.

         Atom        Nuclear Radius (Angstrom)             Electron Density (a.u.)
         ----        -------------------------             -----------------------
     1)   C                 0.0000320678                              126.51442
     2)   C                 0.0000320678                              126.51573
     3)   C                 0.0000320678                              126.51465
     4)   C                 0.0000320678                              126.51444
     5)   C                 0.0000320678                              126.51571
     6)   C                 0.0000320678                              126.51465
     7)   H                 0.0000181514                                0.49874
     8)   H                 0.0000181514                                0.49869
     9)   H                 0.0000181514                                0.49864
    10)   H                 0.0000181514                                0.49874
    11)   H                 0.0000181514                                0.49863
    12)   H                 0.0000181514                                0.49865



 =======================================
 M U L L I K E N   P O P U L A T I O N S
 =======================================
  
 The survey below gives for each atom:
 a) the total charge (Z minus electrons)
 b) the net spin polarization (nr of electrons spin-A minus spin-B)
 c) for each spin the atomic electron valence density (integrated) per L-value.

 Atom              Charge    Spin density          S         P         D         F
 ----              ------    ------------       ------    ------    ------    ------
 1 C               0.1754                       3.0649    2.6987    0.0610    0.0000
 2 C               0.1757                       3.0649    2.6984    0.0610    0.0000
 3 C               0.1755                       3.0650    2.6986    0.0610    0.0000
 4 C               0.1753                       3.0650    2.6987    0.0610    0.0000
 5 C               0.1757                       3.0649    2.6984    0.0610    0.0000
 6 C               0.1755                       3.0650    2.6985    0.0610    0.0000
 7 H              -0.1759                       1.1045    0.0714    0.0000    0.0000
 8 H              -0.1756                       1.1042    0.0714    0.0000    0.0000
 9 H              -0.1750                       1.1037    0.0714    0.0000    0.0000
 10 H             -0.1759                       1.1045    0.0715    0.0000    0.0000
 11 H             -0.1757                       1.1043    0.0714    0.0000    0.0000
 12 H             -0.1750                       1.1037    0.0714    0.0000    0.0000

 Populations of individual BAS functions
 ----------------------------------------
 1 C            0.4869  1.5144  0.2298  0.8872 -0.0535 -0.1034  0.1475 -0.2377  0.8055  0.6780
                0.8823  0.2001  0.1366  0.1898  0.0268  0.0122  0.0174 -0.0175  0.0040  0.0181
 2 C            0.4870  1.5144  0.2297  0.8874 -0.0535 -0.2030  0.1473 -0.1389  0.8625  0.6781
                0.8260  0.1930  0.1366  0.1969  0.0183  0.0063  0.0220 -0.0175  0.0100  0.0221
 3 C            0.4870  1.5144  0.2298  0.8873 -0.0535 -0.2078  0.1474 -0.1339  0.8651  0.6781
                0.8231  0.1926  0.1366  0.1973  0.0181  0.0060  0.0215 -0.0175  0.0103  0.0226
 4 C            0.4869  1.5144  0.2298  0.8872 -0.0535 -0.1033  0.1475 -0.2378  0.8054  0.6780
                0.8823  0.2001  0.1366  0.1899  0.0268  0.0122  0.0174 -0.0175  0.0040  0.0181
 5 C            0.4870  1.5144  0.2297  0.8874 -0.0535 -0.2019  0.1472 -0.1402  0.8617  0.6781
                0.8268  0.1922  0.1366  0.1977  0.0179  0.0062  0.0221 -0.0176  0.0100  0.0223
 6 C            0.4870  1.5144  0.2298  0.8873 -0.0535 -0.2067  0.1474 -0.1350  0.8644  0.6781
                0.8238  0.1918  0.1366  0.1981  0.0178  0.0059  0.0217 -0.0175  0.0103  0.0228
 7 H            0.2097  0.5759  0.3188  0.0289  0.0217  0.0208
 8 H            0.2093  0.5761  0.3188  0.0295  0.0217  0.0202
 9 H            0.2085  0.5762  0.3189  0.0162  0.0217  0.0334
 10 H           0.2098  0.5759  0.3188  0.0288  0.0217  0.0209
 11 H           0.2093  0.5762  0.3188  0.0294  0.0217  0.0203
 12 H           0.2086  0.5762  0.3189  0.0162  0.0217  0.0334

 Gross Charges per Atom (Z minus electrons)
 ==========================================
             0.1754    0.1757    0.1755    0.1753    0.1757    0.1755   -0.1759   -0.1756   -0.1750   -0.1759
            -0.1757   -0.1750
 Net Total: -0.00000000


 Atom-Atom Population Matrix (off-diagonal elements not doubled)
 ===============================================================

     1 :     4.5229
     2 :     0.5436    4.5223
     3 :    -0.0106    0.5398    4.5224
     4 :    -0.0557   -0.0106    0.5437    4.5229
     5 :    -0.0106   -0.0555   -0.0107    0.5398    4.5222
     6 :     0.5399   -0.0107   -0.0555   -0.0106    0.5436    4.5224
     7 :    -0.0533    0.3939   -0.0538    0.0021    0.0041    0.0022    0.9821
     8 :     0.0021   -0.0538    0.3939   -0.0533    0.0022    0.0041   -0.0478    0.9818
     9 :     0.0041    0.0022   -0.0531    0.3939   -0.0537    0.0021   -0.0038   -0.0474    0.9808
    10 :     0.0022    0.0041    0.0021   -0.0540    0.3939   -0.0532    0.0015   -0.0038   -0.0477    0.9822
    11 :    -0.0540    0.0021    0.0041    0.0022   -0.0532    0.3939   -0.0038    0.0015   -0.0038   -0.0475
             0.9818
    12 :     0.3939   -0.0530    0.0022    0.0041    0.0021   -0.0538   -0.0475   -0.0038    0.0016   -0.0038
            -0.0477    0.9808



 =================================================
 H I R S H F E L D   C H A R G E   A N A L Y S I S
 =================================================
  
 For each fragment: the (numerical) integral of rho(scf) * rho(fragment)/rho(sum-of-fragments)
 (nuclear charges are included, electrons are counted negative)

 The fragments and their ordering are defined in the early G E O M E T R Y output section.
 If you use single-atom fragments, this usually implies that all atoms of the same
 chemical type are grouped together. This may not be the order in which you listed them
 in the input file!

    1  C                        -0.0463
    2  C                        -0.0463
    3  C                        -0.0463
    4  C                        -0.0463
    5  C                        -0.0463
    6  C                        -0.0463
    7  H                         0.0463
    8  H                         0.0463
    9  H                         0.0462
   10  H                         0.0463
   11  H                         0.0463
   12  H                         0.0462

 Sum of these charges (accuracy NumInt/Tails) =          -0.00005967



 =============================
 V O R O N O I   C H A R G E S
 =============================
  
 For each atom: the (numerical) integral of the total electronic charge density in its Voronoi cell,
 i.e. the region of space that is closer to that atom than to any other atom.
 (cf. Wigner-Seitz cells in crystals)

 Within the Voronoi cell the subintegrals over the atomic sphere and the remaining part are evaluated
 separately to give the numbers of electrons (negative charge) in these regions.
 The net total charge in the cell (including the nuclear charge) is also given.

 Values are provided for
    a) the Initial (sum-of-fragments) density
    b) the Orthogonalized-Fragments density
    c) the SCF density
    d) the Voronoi Deformation Density (VDD): the difference SCF-Initial for the complete atomic cell


  Atom                Initial                    OrthFrag                   SCF
             Sphere RestCell NetTotal   Sphere RestCell NetTotal   Sphere RestCell NetTotal      VDD
 -----       ------------------------   ------------------------   ------------------------    -----
    1 C      -2.269   -3.185    0.547   -2.452   -3.136    0.412   -2.303   -3.206    0.491   -0.056
    2 C      -2.269   -3.190    0.542   -2.452   -3.137    0.411   -2.303   -3.207    0.490   -0.052
    3 C      -2.269   -3.185    0.547   -2.452   -3.138    0.410   -2.303   -3.207    0.490   -0.057
    4 C      -2.269   -3.189    0.543   -2.452   -3.139    0.409   -2.303   -3.209    0.488   -0.055
    5 C      -2.269   -3.191    0.541   -2.452   -3.137    0.410   -2.303   -3.208    0.489   -0.051
    6 C      -2.269   -3.186    0.545   -2.452   -3.140    0.408   -2.303   -3.209    0.488   -0.057
    7 H      -0.075   -1.474   -0.549   -0.096   -1.318   -0.414   -0.109   -1.385   -0.493    0.055
    8 H      -0.075   -1.469   -0.544   -0.096   -1.314   -0.409   -0.109   -1.380   -0.489    0.055
    9 H      -0.075   -1.464   -0.539   -0.096   -1.311   -0.407   -0.109   -1.377   -0.486    0.053
   10 H      -0.075   -1.473   -0.548   -0.096   -1.317   -0.413   -0.109   -1.384   -0.493    0.055
   11 H      -0.075   -1.469   -0.543   -0.096   -1.312   -0.407   -0.109   -1.378   -0.487    0.056
   12 H      -0.075   -1.467   -0.542   -0.096   -1.314   -0.409   -0.109   -1.380   -0.489    0.053
 ---------------------------------------------------------------------------------------------------
 Total NetCharge:              -0.000                     -0.000                     -0.000    0.000
 (accuracy NumInt/Tails)

 Remark: the 'NetTotal' Voronoi charges often do not match the Mulliken and/or Hirshfeld charges very
 well. This is caused by the fact that chemically different atoms are not treated in accordance with
 their relative sizes. (Voronoi cells are defined by boundary planes halfway between the atoms.)
 However, the CHANGES in charge, comparing 'Initial' to 'SCF' for instance, do give a fair indication
 of the flow of charge caused by the relaxation from sum-of-fragments to self-consistency.

 Warning: the absolute accuracy of the VDD charges obtained using the Fuzzy Cells (Becke) integration
 scheme is much poorer than the one obtained with an 'equivalent' Voronoi integration grid. 



 =================================================================
 M U L T I P O L E   D E R I V E D   C H A R G E   A N A L Y S I S
 =================================================================

 This charge analysis uses the atomic multipoles (obtained from the fitted density) up to some level X,
 and reconstructs these multipoles exactly (up to level X) by distributing charges over all atoms.
 This is achieved by using Lagrange multipliers and a weight function to keep the multipoles local.

 Dummy atoms can be included (by setting INCDUM in MDC-block to 1) to obtain a fractional charge.
 This is generally useful and necessary only for small symmetrical molecules, when there are not
 enough degrees of freedom to reconstruct the multipoles.

 Since the atomic multipoles are reconstructed up to level X,
 the molecular multipoles are represented also up to level X.
 The recommended level is to reconstruct up to quadrupole : -> MDC-q charges.

 See: M. Swart, P.Th. van Duijnen, J.G. Snijders, J.Comput.Chem., (2001), p. 79-88.

 ------------------------------------------------------------- 
 Atomic electronic multipole moments from SCF equations (a.u.)
 ------------------------------------------------------------- 

   atom        charge        dip-x     dip-y     dip-z      quad-xx   quad-xy   quad-xz   quad-yy   quad-yz   quad-zz
 --------------------------------------------------------------------------------------------------------------------
    1 C      0.060865     0.000883  0.000000 -0.047133     0.469044 -0.000000 -0.003119 -0.996617 -0.000000  0.527573
    2 C      0.060451    -0.042021  0.000000 -0.025699     0.511936 -0.000000  0.013773 -0.993803  0.000000  0.481867
    3 C      0.060587    -0.042417  0.000000  0.023506     0.515336 -0.000000 -0.013702 -0.994848 -0.000000  0.479511
    4 C      0.060863    -0.001100  0.000000  0.047122     0.468762 -0.000000  0.001593 -0.996615  0.000000  0.527853
    5 C      0.060459     0.042115 -0.000000  0.025517     0.505541 -0.000000  0.016015 -0.993830  0.000000  0.488289
    6 C      0.060589     0.042487  0.000000 -0.023303     0.509273 -0.000000 -0.016279 -0.994877 -0.000000  0.485604
    7 H     -0.060623    -0.019611  0.000000 -0.011584     0.161019 -0.000000  0.080264 -0.195377 -0.000000  0.034358
    8 H     -0.060617    -0.019976 -0.000000  0.010679     0.171333 -0.000000 -0.076333 -0.195675  0.000000  0.024342
    9 H     -0.060669    -0.000183  0.000000  0.022632    -0.038596  0.000000 -0.003352 -0.194889 -0.000000  0.233485
   10 H     -0.060626     0.019293  0.000000  0.012132     0.159576 -0.000000  0.080755 -0.195356  0.000000  0.035780
   11 H     -0.060607     0.019697  0.000000 -0.011245     0.169967  0.000000 -0.076895 -0.195654 -0.000000  0.025687
   12 H     -0.060672     0.000791  0.000000 -0.022622    -0.038533  0.000000 -0.004388 -0.194887  0.000000  0.233420

 --------------------------------------- 
 Multipole derived atomic charges (a.u.)
 --------------------------------------- 

 The MDC-m charges are just the Monopole terms in the multipole expansion, while for the MDC-d charges
 also the Dipoles are reconstructed. The usually preferred charges are the MDC-q charges.
 These reconstruct the Monopoles, Dipoles and Quadrupoles (both atomic AND molecular).

        Atom    Level:     MDC-m        MDC-d        MDC-q
 ---------------------------------------------------------
     1     C            0.060865     0.034924    -0.125971
     2     C            0.060451     0.034497    -0.128198
     3     C            0.060587     0.034649    -0.128005
     4     C            0.060863     0.034925    -0.125991
     5     C            0.060459     0.034501    -0.127903
     6     C            0.060589     0.034644    -0.127652
     7     H           -0.060623    -0.034359     0.127788
     8     H           -0.060617    -0.034635     0.127544
     9     H           -0.060669    -0.035078     0.126711
    10     H           -0.060626    -0.034362     0.127624
    11     H           -0.060607    -0.034627     0.127355
    12     H           -0.060672    -0.035078     0.126699

 ------------------------------------------------ 
 Average absolute deviations in atomic multipoles
 ------------------------------------------------ 

 Stated here are the average differences between the atomic multipoles
 and the reconstructed atomic multipoles (from the distributed charges).
 If these values are not zero, this means there are not enough degrees of freedom,
 to be able to reconstruct the atomic multipoles. (This usually happens only
 for small and/or highly symmetric molecules). If this is the case, one could add
 dummy atoms as extra point charges (and setting INCDUM in MDC-block to 1).

 Level:                                 MDC-d        MDC-q
 ---------------------------------------------------------
 Charge   (a.u.)                       0.0000       0.0000
 Dipole   (Debye)                      0.0000       0.0000
 Quad.    (a.u.)                       0.2134       0.0000

 --------------------------------------- 
 Represented molecular multipole moments
 --------------------------------------- 

 Given here are the Molecular multipole moments from the atomic charges, and from the Fit Density.
 Note that the atomic charges represent the latter, NOT the ones from the Exact density.

            Q (a.u.)             Dipole moment (Debye)                                          Quadrupole moment (a.u.)
                                 x         y         z              xx        xy        xz        yy        yz        zz
------------------------------------------------------------------------------------------------------------------------
MDC-m         0.0000        0.0001    0.0000   -0.0000         -1.3797    0.0006   -0.0014    2.7586   -0.0001   -1.3789
MDC-d         0.0000        0.0000    0.0000   -0.0000         -0.7729    0.0002    0.0073    1.5782   -0.0001   -0.8053
MDC-q         0.0000        0.0000    0.0000   -0.0000          2.9008    0.0002    0.0052   -5.7909   -0.0001    2.8901
 
Fit.Dens.     0.0000        0.0000    0.0000   -0.0000          2.9008    0.0002    0.0043   -5.7909   -0.0001    2.8901



 =============
 Dipole Moment  ***  (Debye)  ***
 =============
  
 Vector   :        -0.00009675     -0.00000010      0.00004742
 Magnitude:         0.00010775

 This molecular dipole moment is calculated with analytic integration



 =========================================
 Quadrupole Moment (Buckingham convention)  ***  (a.u.)  ***
 =========================================
  
      quad-xx        quad-xy        quad-xz        quad-yy        quad-yz        quad-zz
      2.91217788    -0.00043134     0.00260171    -5.81923557     0.00021144     2.90705768

 This molecular quadrupole moment is calculated with analytic integration
1



 =======================================================
 S F O   P O P U L A T I O N S ,   M O   A N A L Y S I S
 =======================================================
  
 A Mulliken population analysis is performed on (input-)selected MOs. All populations refer to SFOs.
 BAS populations may have been printed directly after the SCF part.


                                       === A ===


 SFO contributions (%) per orbital
 (multiplication by the orbital occupation yields the SFO Gross Populations)

 Orb.:       12     13     14     15     16     17     18     19     20     21     22     23     24     25
 occup:     2.00   2.00   2.00   2.00   2.00   2.00   2.00   2.00   2.00   2.00   0.00   0.00   0.00   0.00
 CF+SFO     ----   ----   ----   ----   ----   ----   ----   ----   ----   ----   ----   ----   ----   ----
 ------
      2:    0.24   4.04   0.00  -0.00   0.03  -0.00  -0.00  -0.06   0.00   0.00   0.00  -0.00  -0.24   0.01
      3:   -0.08   0.11   0.00  -0.00  -0.18   0.00  -0.00  -0.02  -0.00   0.00  -0.00  -0.00  -2.69  -0.09
      6:    0.01   0.00  14.44   0.44  -0.00  -0.00   8.97   0.20   0.00  -0.00   0.00  -0.00   0.00  -1.77
      7:    0.00   0.00   2.00   0.67  -0.00   0.00   2.99   0.07   0.00  -0.00  -0.00   0.00  -0.00  -8.22
      9:    0.00  -0.00  -0.00   0.00  -0.00  17.22  -0.00   0.00   0.26  31.50   0.36  34.14   0.00   0.00
     10:   -0.00   0.00  -0.00   0.00   0.00  -0.98  -0.00  -0.00   0.00   0.11  -0.04  -3.81  -0.00   0.00
     12:   10.70   2.58   0.01   0.33  17.46   0.00   0.18   5.69   0.00   0.00  -0.00  -0.00   0.73   0.13
     13:    0.23   0.28   0.00   0.02   1.24   0.00   0.05   1.42   0.00  -0.00  -0.00  -0.00  -0.51  -1.62
     17:    0.00   0.00   0.00  -0.00   0.00   0.00   0.00  -0.00   0.61   0.00   1.12   0.02  -0.00  -0.00
     21:    0.24   4.02   0.00   0.03   0.00   0.00  -0.05  -0.01  -0.00  -0.00  -0.00  -0.00  -0.24   0.02
     22:   -0.08   0.11   0.00  -0.16  -0.03   0.00  -0.02  -0.00   0.00  -0.00   0.00  -0.00  -2.69  -0.22
     25:    7.83   1.95   3.84  10.11   3.05   0.00   6.35   0.26  -0.00   0.00   0.00   0.00   0.53  -0.75
     26:    0.17   0.21   0.54   0.25   0.90  -0.00   1.95  -0.08  -0.00  -0.00   0.00  -0.00  -0.37  -9.17
     28:    0.00   0.00   0.00  -0.00   0.00  17.22   0.00   0.00  25.97   5.79  22.37  12.13   0.00   0.00
     29:    0.00  -0.00   0.00  -0.00   0.00  -0.98   0.00   0.00   0.09   0.02  -2.51  -1.34   0.00   0.00
     31:    2.86   0.69  10.64   5.03  -0.07  -0.00  -0.11   8.52   0.00  -0.00   0.00   0.00   0.19  -0.33
     32:    0.06   0.07   1.46   0.90  -0.13  -0.00  -0.27   2.92  -0.00   0.00  -0.00   0.00  -0.13  -0.99
     40:    0.24   4.03   0.00   0.02   0.01   0.00  -0.04  -0.02  -0.00   0.00  -0.00   0.00  -0.24   0.04
     41:   -0.08   0.11   0.00  -0.11  -0.07   0.00  -0.01  -0.01  -0.00   0.00   0.00  -0.00  -2.69  -0.60
     44:    8.23   2.03   3.30   7.22   6.59   0.00   6.65  -0.15  -0.00  -0.00  -0.00  -0.00   0.56   0.41
     45:    0.18   0.22   0.47  -0.09   1.26  -0.00   2.16  -0.36  -0.00   0.00  -0.00  -0.00  -0.39  -9.50
     47:   -0.00  -0.00  -0.00   0.00  -0.00  17.22   0.00   0.00  21.21  10.56  28.74   5.76  -0.00   0.00
     48:   -0.00   0.00   0.00  -0.00   0.00  -0.98  -0.00   0.00   0.08   0.04  -3.22  -0.63  -0.00  -0.00
     50:    2.47   0.59  11.17   3.94   0.40   0.00   0.32   8.21  -0.00   0.00  -0.00  -0.00   0.16   0.29
     51:    0.05   0.06   1.53   1.09  -0.33   0.00  -0.13   2.84  -0.00  -0.00  -0.00   0.00  -0.11  -1.58
     59:    0.24   4.04   0.00   0.00   0.03  -0.00  -0.00  -0.06  -0.00  -0.00   0.00   0.00  -0.24   0.00
     60:   -0.08   0.11   0.00  -0.00  -0.18  -0.00  -0.00  -0.02   0.00  -0.00   0.00   0.00  -2.69  -0.10
     63:    0.00   0.00  14.44   0.43  -0.00   0.00   8.98   0.21   0.00   0.00   0.00  -0.00   0.00  -1.75
     64:    0.00   0.00   1.99   0.66   0.01   0.00   2.98   0.07  -0.00   0.00   0.00  -0.00  -0.00  -8.19
     66:    0.00   0.00  -0.00  -0.00   0.00  17.22   0.00   0.00   0.22  31.55   0.42  34.07   0.00   0.00
     67:    0.00   0.00   0.00  -0.00   0.00  -0.98  -0.00   0.00   0.00   0.11  -0.04  -3.81   0.00   0.00
     69:   10.70   2.58   0.00   0.27  17.53   0.00   0.12   5.75   0.00  -0.00  -0.00  -0.00   0.73   0.14
     70:    0.23   0.28   0.00   0.01   1.25   0.00   0.04   1.42  -0.00  -0.00   0.00  -0.00  -0.51  -1.52
     74:   -0.00   0.00   0.00  -0.00   0.00   0.00   0.00   0.00   0.60   0.00   1.13   0.01   0.00   0.00
     78:    0.24   4.02   0.00   0.02   0.01   0.00  -0.06  -0.01   0.00   0.00   0.00  -0.00  -0.24   0.01
     79:   -0.08   0.11   0.00  -0.16  -0.03   0.00  -0.02  -0.00   0.00   0.00  -0.00  -0.00  -2.69  -0.22
     82:    7.80   1.92   3.92  10.11   2.87  -0.00   6.53   0.35   0.00  -0.00  -0.00   0.00   0.52  -0.71
     83:    0.17   0.21   0.53   0.23   0.82   0.00   1.99  -0.07  -0.00  -0.00  -0.00  -0.00  -0.37  -8.98
     85:    0.00  -0.00   0.00   0.00   0.00  17.22   0.00   0.00  26.18   5.58  22.64  11.86   0.00   0.00
     86:   -0.00  -0.00  -0.00   0.00   0.00  -0.98  -0.00   0.00   0.10   0.02  -2.52  -1.34   0.00   0.00
     88:    2.90   0.72  10.55   5.21  -0.07  -0.00  -0.10   8.24   0.00   0.00  -0.00   0.00   0.20  -0.34
     89:    0.07   0.08   1.47   0.97  -0.10  -0.00  -0.28   2.87   0.00   0.00  -0.00   0.00  -0.14  -1.01
     97:    0.24   4.03   0.00   0.01   0.02   0.00  -0.04  -0.02   0.00  -0.00   0.00   0.00  -0.24   0.04
     98:   -0.08   0.11   0.00  -0.11  -0.07   0.00  -0.01  -0.01   0.00   0.00  -0.00  -0.00  -2.69  -0.60
    101:    8.19   2.00   3.39   7.31   6.33  -0.00   6.92  -0.16  -0.00   0.00  -0.00   0.00   0.55   0.45
    102:    0.18   0.22   0.46  -0.10   1.17   0.00   2.21  -0.35   0.00   0.00  -0.00  -0.00  -0.39  -9.45
    104:   -0.00   0.00  -0.00  -0.00   0.00  17.22   0.00   0.00  21.45  10.31  28.95   5.54  -0.00  -0.00
    105:    0.00   0.00   0.00   0.00   0.00  -0.98   0.00   0.00   0.08   0.04  -3.22  -0.63  -0.00  -0.00
    107:    2.51   0.62  11.09   4.10   0.40  -0.00   0.29   7.98  -0.00   0.00  -0.00   0.00   0.17   0.27
    108:    0.06   0.06   1.54   1.17  -0.32  -0.00  -0.14   2.79   0.00  -0.00  -0.00  -0.00  -0.12  -1.60
    115:    5.54   9.20  -0.00  10.96   1.96  -0.00  11.32   2.02   0.00  -0.00   0.00   0.00   7.80   7.92
    116:   -0.02   0.16  -0.00   0.13   0.02   0.00  -0.17  -0.03   0.00   0.00   0.00   0.00  11.27  11.76
    121:    5.54   9.17  -0.00   8.00   4.96   0.00   8.29   5.06   0.00   0.00   0.00   0.00   7.81  21.71
    122:   -0.02   0.16  -0.00   0.10   0.06  -0.00  -0.13  -0.07   0.00  -0.00   0.00   0.00  11.28  32.26
    125:    0.00   0.00  -0.00  -0.00   0.00   0.25  -0.00   0.00   0.56   0.28   1.14   0.23   0.00  -0.00
    127:    5.53   9.09  -0.00   0.20  12.82   0.00   0.20  13.16   0.00   0.00  -0.00   0.00   7.81   3.39
    128:   -0.02   0.16  -0.00   0.00   0.16  -0.00  -0.00  -0.19   0.00   0.00   0.00   0.00  11.27   5.04
    131:   -0.00  -0.00   0.00   0.00  -0.00   0.25   0.00  -0.00   0.01   0.83   0.02   1.35   0.00  -0.00
    133:    5.54   9.20   0.00  11.17   1.75   0.00  11.48   1.87   0.00   0.00   0.00   0.00   7.80   7.75
    134:   -0.02   0.16  -0.00   0.13   0.02  -0.00  -0.17  -0.03   0.00   0.00   0.00   0.00  11.27  11.53
    139:    5.54   9.17   0.00   8.29   4.67   0.00   8.50   4.85   0.00  -0.00   0.00   0.00   7.82  21.68
    140:   -0.02   0.16  -0.00   0.10   0.06  -0.00  -0.12  -0.07  -0.00  -0.00   0.00  -0.00  11.29  32.20
    143:   -0.00  -0.00   0.00  -0.00  -0.00   0.25  -0.00   0.00   0.56   0.27   1.15   0.22   0.00  -0.00
    145:    5.53   9.09   0.00   0.28  12.74  -0.00   0.26  13.10  -0.00  -0.00   0.00   0.00   7.81   3.50
    146:   -0.02   0.16  -0.00   0.00   0.16  -0.00  -0.00  -0.19  -0.00   0.00  -0.00  -0.00  11.28   5.20
    149:    0.00  -0.00   0.00  -0.00   0.00   0.25   0.00   0.00   0.01   0.82   0.01   1.36   0.00   0.00


 Summation over all MOs, multiplied by occupation: Total SFO Gross Populations in this Irrep
 ===========================================================================================

     2.00    1.07   -0.01   -0.00   -0.00    0.84    0.07   -0.01    0.98   -0.02   -0.00    0.81
     0.03   -0.01    0.02    0.01    0.01    0.02    0.00    2.00    1.07   -0.01   -0.00   -0.00
     0.82    0.04   -0.01    0.98   -0.02   -0.00    0.83    0.06   -0.01    0.02    0.01    0.01
     0.02    0.01    2.00    1.07   -0.01   -0.00   -0.00    0.82    0.04   -0.01    0.98   -0.02
    -0.00    0.83    0.06   -0.01    0.02    0.01    0.01    0.02    0.01    2.00    1.07   -0.01
    -0.00   -0.00    0.84    0.07   -0.01    0.98   -0.02   -0.00    0.81    0.03   -0.01    0.02
     0.01    0.01    0.02    0.00    2.00    1.07   -0.01   -0.00   -0.00    0.82    0.04   -0.01
     0.98   -0.02   -0.00    0.83    0.06   -0.01    0.02    0.01    0.01    0.02    0.01    2.00
     1.07   -0.01   -0.00   -0.00    0.82    0.04   -0.01    0.98   -0.02   -0.00    0.83    0.06
    -0.01    0.02    0.01    0.01    0.02    0.01    1.11   -0.00   -0.00    0.03    0.02    0.02
     1.11   -0.00   -0.00    0.03    0.02    0.02    1.11   -0.00   -0.00    0.02    0.02    0.03
     1.11   -0.00   -0.00    0.03    0.02    0.02    1.11   -0.00   -0.00    0.03    0.02    0.02
     1.11   -0.00   -0.00    0.02    0.02    0.03



 List of all MOs, ordered by energy, with the most significant SFO gross populations
 ===================================================================================

 Each percentage contribution in the table below corresponds to the indicated SFO.
 In general, a SFO may be a linear combination of several Fragment Orbitals on the same,
 or on symmetry-related Fragments. Only the first 'member' of such a combination is
 specified here. A full definition of all SFOs is given in an earlier part of the output.
 The numbering of the SFOs in this table does NOT include the Core Orbitals, and starts
 from one for each symmetry representation, as in the SFO definition list earlier.

       E(eV)  Occ       MO           %     SFO (first member)   E(eV)  Occ   Fragment
 -------------------------------------------------------------------------------------

     -21.394  2.00     7 A         14.60%     2 S             -13.876  2.00     5 C
                                   14.60%     2 S             -13.876  2.00     1 C
                                   14.60%     2 S             -13.876  2.00     2 C
                                   14.60%     2 S             -13.876  2.00     4 C
                                   14.60%     2 S             -13.876  2.00     6 C
                                   14.59%     2 S             -13.876  2.00     3 C
                                    2.37%     1 P:z            -5.403  0.67     4 C
                                    2.37%     1 P:z            -5.403  0.67     1 C
                                    1.83%     1 P:x            -5.403  0.67     3 C
                                    1.82%     1 P:x            -5.403  0.67     6 C
                                    1.75%     1 P:x            -5.403  0.67     2 C
                                    1.73%     1 P:x            -5.403  0.67     5 C
                                    1.24%     1 S              -6.626  1.00    10 H
                                    1.24%     1 S              -6.626  1.00     7 H
                                    1.24%     1 S              -6.626  1.00    11 H
                                    1.24%     1 S              -6.626  1.00     8 H
                                    1.23%     1 S              -6.626  1.00    12 H
                                    1.23%     1 S              -6.626  1.00     9 H
     -18.622  2.00     8 A         20.76%     2 S             -13.876  2.00     5 C
                                   20.65%     2 S             -13.876  2.00     2 C
                                   13.09%     2 S             -13.876  2.00     6 C
                                   12.91%     2 S             -13.876  2.00     3 C
                                    5.54%     1 P:x            -5.403  0.67     1 C
                                    5.50%     1 P:x            -5.403  0.67     4 C
                                    5.11%     1 S              -6.626  1.00    10 H
                                    5.09%     1 S              -6.626  1.00     7 H
                                    3.21%     1 S              -6.626  1.00    11 H
                                    3.19%     1 S              -6.626  1.00     8 H
                                    2.38%     1 P:z            -5.403  0.67     6 C
                                    2.30%     1 P:z            -5.403  0.67     3 C
                                   -1.63%     2 P:x             4.709  0.00     1 C
                                   -1.63%     2 P:x             4.709  0.00     4 C
     -18.619  2.00     9 A         22.20%     2 S             -13.876  2.00     4 C
                                   22.13%     2 S             -13.876  2.00     1 C
                                   10.15%     2 S             -13.876  2.00     3 C
                                    9.97%     2 S             -13.876  2.00     6 C
                                    5.46%     1 S              -6.626  1.00     9 H
                                    5.45%     1 S              -6.626  1.00    12 H
                                    3.50%     1 P:z            -5.403  0.67     2 C
                                    3.45%     1 P:z            -5.403  0.67     5 C
                                    2.49%     1 S              -6.626  1.00     8 H
                                    2.47%     1 S              -6.626  1.00    11 H
                                    2.42%     2 S             -13.876  2.00     2 C
                                    2.31%     2 S             -13.876  2.00     5 C
                                    2.06%     1 P:z            -5.403  0.67     3 C
                                    1.98%     1 P:z            -5.403  0.67     6 C
                                    1.66%     1 P:x            -5.403  0.67     2 C
                                    1.65%     1 P:x            -5.403  0.67     5 C
[...]
 CRIT  5.039607244268218E-002
 iter. 10 V(1) measure  0.8934807889870E+05
       10        delta  0.1662596666720E+00
 CRIT  8.895129914302777E-003
 iter. 11 V(1) measure  0.8934807689750E+05
       11        delta  0.2001205721172E-02
 *** convergence reached

    RRIJmat_z_z         
    using first order VWN potential
 
    NOTE: We will NOT use the GGA kernel (input option ALDA was set)
 
 CRIT   1.00000000000000     
 iter.  1 V(1) measure  0.1302769786840E+04
 *** convergence criterion : .1302770E-02
 CRIT   162.551825268500     
 iter.  2 V(1) measure  0.1073642535596E+04
        2        delta  0.2291272512433E+03
 CRIT   59.9364668020932     
 iter.  3 V(1) measure  0.1106422334274E+04
        3        delta  0.3277979867745E+02
 CRIT   10.4094632200351     
 iter.  4 V(1) measure  0.1111959606227E+04
        4        delta  0.5537271953161E+01
 CRIT   11.5582756465219     
 iter.  5 V(1) measure  0.1115265453761E+04
        5        delta  0.3305847533880E+01
 CRIT   1.78059480614155     
 iter.  6 V(1) measure  0.1115636767075E+04
        6        delta  0.3713133138226E+00
 CRIT   1.48192546287870     
 iter.  7 V(1) measure  0.1115860440458E+04
        7        delta  0.2236733832660E+00
 CRIT  0.711305353468847     
 iter.  8 V(1) measure  0.1115863909013E+04
        8        delta  0.3468555465588E-02
 CRIT  7.329248446489681E-002
 iter.  9 V(1) measure  0.1115861459380E+04
        9        delta  0.2449633368769E-02
 CRIT  5.069445651698855E-002
 iter. 10 V(1) measure  0.1115859790453E+04
       10        delta  0.1668927247692E-02
 CRIT  7.802363112651005E-003
 iter. 11 V(1) measure  0.1115860110974E+04
       11        delta  0.3205217230970E-03
 *** convergence reached
 ------------------------------------------
 Convergence acceleration: T
 QUADRUPOLE-QUADRUPOLE POLARIZABILITY     
 Frequency  =  0.1322975682     Hartrees
 Wavelength =   344.4005294     nm
 Wavenumber =   29035.96001     cm^{-1}
 Energy     =   3.600000000     eV
 ------------------------------------------
 QUADRUPOLE-QUADRUPOLE Polarizability tensor:
 
 xx xx     4188.81793423252     
 xx xy    -7.76560911769814     
 xx xz   -0.192901720984648     
 xx yy    -4991.57643209529     
 xx yz   -0.553660719852552     
 xx zz     802.758497862800     
 xy xx    -7.77817619604923     
 xy xy     12591.1587187269     
 xy xz   -0.606090981454057     
 xy yy   -4.180683648010468E-002
 xy yz   -0.681998408213259     
 xy zz     7.81998303255166     
 xz xx   -0.193626330992404     
 xz xy   -0.608827535804551     
 xz xz     1693.66307897053     
 xz yy    0.147875735277804     
 xz yz     7.90493638316808     
 xz zz    4.575059571356276E-002
 yy xx    -4991.71229909206     
 yy xy    0.581333818001370     
 yy xz    0.132760628795105     
 yy yy     9983.64242664848     
 yy yz   -9.852083303124293E-002
 yy zz    -4991.93012755644     
 yz xx   -0.557946361856927     
 yz xy   -0.713140121303797     
 yz xz     7.89902615822181     
 yz yy    1.532837335283954E-002
 yz yz     12590.5488479906     
 yz zz    0.542617988497649     
 zz xx     802.768806653050     
 zz xy     7.80489573644734     
 zz xz    5.231007220665369E-002
 zz yy    -4991.89287122637     
 zz yz    0.539129619614564     
 zz zz     4189.12406457336     
 
 Imaginary QUADRUPOLE-QUADRUPOLE Polarizability tensor:
 
 xx xx     18.7023888030958     
 xx xy   -6.545484208087700E-002
 xx xz   -1.862453903426098E-003
 xx yy    -21.5490045759437     
 xx yz   -6.167819337309774E-003
 xx zz     2.84661577284768     
 xy xx   -6.594064697732951E-002
 xy xy     124.966311865420     
 xy xz   -5.411141057124804E-003
 xy yy   -5.884795327930905E-004
 xy yz   -7.559648721285421E-003
 xy zz    6.652912650984107E-002
 xz xx   -1.699565697153965E-003
 xz xy   -5.974050861167824E-003
 xz xz     7.93287422808699     
 xz yy    1.207985857593607E-003
 xz yz    6.647798998653287E-002
 xz zz    4.915798395747689E-004
 yy xx    -21.5869718695450     
 yy xy    0.155247630236364     
 yy xz    6.432289542389295E-004
 yy yy     43.1716756356559     
 yy yz   -2.598886438197000E-002
 yy zz    -21.5847037661104     
 yz xx   -4.935005619974108E-003
 yz xy   -7.174546823582153E-003
 yz xz    6.673519177871330E-002
 yz yy    1.705408104256817E-004
 yz yz     124.937198296159     
 yz zz    4.764464809733733E-003
 zz xx     2.84631111624962     
 zz xy    6.597764195084038E-002
 zz xz    6.068154191469368E-004
 zz yy    -21.5522010482153     
 zz yz    6.037060256998182E-003
 zz zz     18.7058899319656     



 =======================================================================
 Electrostatic potential at the Nuclei due to electrons and other nuclei
 =======================================================================
  
         Atom                  Potential
         ----                  ---------
     1)   C                  14.76890052
     2)   C                  14.76879781
     3)   C                  14.76875571
     4)   C                  14.76890135
     5)   C                  14.76879903
     6)   C                  14.76874572
     7)   H                   1.10110004
     8)   H                   1.10119638
     9)   H                   1.10157779
    10)   H                   1.10109017
    11)   H                   1.10116079
    12)   H                   1.10157435
 
 
 ========================
 No memory problems found
 ========================
 
 Maximum number of active allocate calls:        1279
 
 *******************************************************************************

                             A D F   E X I T
 NORMAL TERMINATION



 =================
 Timing Statistics
 =================
  
 Total Used :                     CPU=       25.94      System=        0.44     Elapsed=       26.40

 Calls  Section                     ( Mean, Percentage )
 ---------------------------------------------------------------------------------------------------
     3  ><      ................      0.00    0.01             0.00    0.00             0.00    0.01
     1  INIT    ................      0.39    1.50             0.01    1.37             0.40    1.50
     1  GEOMET  ................      0.03    0.11             0.01    1.31             0.03    0.13
     1  FRAGM   ................      0.01    0.02             0.02    4.15             0.02    0.09
     1  INPUTA  ................      0.00    0.00             0.00    0.31             0.00    0.01
     1  ATDEN   ................      0.00    0.01             0.00    0.00             0.00    0.01
     1  MAINSY  ................      0.02    0.06             0.00    0.87             0.02    0.08
     1  SYMFIT  ................      0.00    0.02             0.00    0.03             0.00    0.02
     1  CORORT  ................      0.00    0.00             0.00    0.03             0.00    0.00
     1  SYMORB  ................      0.00    0.01             0.00    0.00             0.00    0.01
     1  CLSMAT  ................      0.01    0.03             0.00    0.01             0.01    0.03
     1  ORTHON  ................      0.01    0.04             0.00    0.90             0.01    0.05
     1  GENPT   ................      0.08    0.30             0.00    0.03             0.08    0.30
     1  PTBAS   ................      0.06    0.23             0.00    0.29             0.06    0.23
    12  FOCKY   ................      0.17    7.93             0.00    5.72             0.17    7.89
    12  FOCKTR  ................      0.00    0.08             0.00    0.94             0.00    0.09
    12  SDIIS   ................      0.00    0.13             0.00    1.36             0.00    0.15
     1  COREPS  ................      0.14    0.53             0.00    0.00             0.14    0.52
     1  TOTEN   ................      0.62    2.40             0.01    1.83             0.63    2.39
     1  POPAN   ................      0.00    0.02             0.00    0.00             0.00    0.02
     1  DEBYE   ................      0.01    0.03             0.00    0.52             0.01    0.04
     1  INPUTE  ................      0.00    0.00             0.00    0.16             0.00    0.00
     1  SYMORE  ................      0.00    0.00             0.00    0.21             0.00    0.00
     1  METS    ................      0.00    0.00             0.00    0.01             0.00    0.00
     1  CETS    ................      0.01    0.03             0.00    0.00             0.01    0.03
     1  ELNRGY  ................      0.01    0.03             0.00    0.00             0.01    0.03
     1  POPUL   ................      0.01    0.04             0.00    0.00             0.01    0.04
     1  AORESPONSE .............     22.41   86.39             0.35   79.05            22.78   86.27
     1  EXIT PROCEDURE .........      0.01    0.06             0.00    0.90             0.02    0.07


 Currently Open Files (EXIT00)
 ====================

 Unit    Access Format  Status   Type       Ident (file)
 -------------------------------------------------------
   3      SEQ    FORM   TRANSP  NORMAL      LOGFILE
                                          ( logfile )

 ***************************************************************************************************
 (LOGFILE)
 <Sep29-2020> <15:18:18>  ADF 2019  RunTime: Sep29-2020 15:18:18  Nodes: 1  Procs: 1
 <Sep29-2020> <15:18:18>  Hydrogen (TZP)
 <Sep29-2020> <15:18:18>  RunType   : CREATE
 <Sep29-2020> <15:18:18>  Net Charge: 0 (Nuclei minus Electrons)
 <Sep29-2020> <15:18:18>  Symmetry  : ATOM
  Coordinates
    Atom         X           Y           Z   (Angstrom)
    1.H         0.000000    0.000000    0.000000
 <Sep29-2020> <15:18:18>  >>>> CORORT
 <Sep29-2020> <15:18:18>  >>>> CLSMAT
 <Sep29-2020> <15:18:18>  >>>> ORTHON
 <Sep29-2020> <15:18:18>  >>>> GENPT
 <Sep29-2020> <15:18:18>  Block Length=  64
 <Sep29-2020> <15:18:18>  >>>> PTBAS
 <Sep29-2020> <15:18:18>  >>>> CYCLE
 <Sep29-2020> <15:18:18>              |Error|         MaxErr       Wt(A-DIIS)
 <Sep29-2020> <15:18:18>      1      0.00000000      0.00000000
 <Sep29-2020> <15:18:18>      2      0.03052909      0.02968459
 <Sep29-2020> <15:18:18>      3      0.00718138      0.00670742    100.0
 <Sep29-2020> <15:18:18>      4      0.00117303      0.00114116      0.1
 <Sep29-2020> <15:18:18>      5      0.00002783      0.00002380      0.0
 <Sep29-2020> <15:18:18>      6      0.00000153      0.00000130      0.0
 <Sep29-2020> <15:18:18>      7      0.00000000      0.00000000      0.0
 <Sep29-2020> <15:18:18>  SCF converged
 <Sep29-2020> <15:18:18>      8      0.00000000      0.00000000      0.0
 <Sep29-2020> <15:18:18>  >>>> POPAN
 <Sep29-2020> <15:18:18>  >>>> DEBYE
 <Sep29-2020> <15:18:18>  NORMAL TERMINATION
 <Sep29-2020> <15:18:18>  END
 <Sep29-2020> <15:18:18>  ADF 2019  RunTime: Sep29-2020 15:18:18  Nodes: 1  Procs: 1
 <Sep29-2020> <15:18:18>  Carbon (TZP)
 <Sep29-2020> <15:18:18>  RunType   : CREATE
 <Sep29-2020> <15:18:18>  Net Charge: 0 (Nuclei minus Electrons)
 <Sep29-2020> <15:18:18>  Symmetry  : ATOM
  Coordinates
    Atom         X           Y           Z   (Angstrom)
    1.C         0.000000    0.000000    0.000000
 <Sep29-2020> <15:18:18>  >>>> CORORT
 <Sep29-2020> <15:18:18>  >>>> CLSMAT
 <Sep29-2020> <15:18:18>  >>>> ORTHON
 <Sep29-2020> <15:18:18>  >>>> GENPT
 <Sep29-2020> <15:18:18>  Block Length=  72
 <Sep29-2020> <15:18:18>  >>>> PTBAS
 <Sep29-2020> <15:18:18>  >>>> CYCLE
 <Sep29-2020> <15:18:18>              |Error|         MaxErr       Wt(A-DIIS)
 <Sep29-2020> <15:18:18>      1      0.00000000      0.00000000
 <Sep29-2020> <15:18:18>      2      4.48324754      3.31969244    100.0
 <Sep29-2020> <15:18:18>      3      1.61537707      1.30410194    100.0
 <Sep29-2020> <15:18:18>      4      0.72706284      0.59053131    100.0
 <Sep29-2020> <15:18:18>      5      0.40898688      0.33263800    100.0
 <Sep29-2020> <15:18:19>      6      0.13548919      0.10594416    100.0
 <Sep29-2020> <15:18:19>      7      0.11406432      0.09088019     90.8
 <Sep29-2020> <15:18:19>      8      0.01170325      0.00926551      8.3
 <Sep29-2020> <15:18:19>      9      0.00078015      0.00061791      0.0
 <Sep29-2020> <15:18:19>     10      0.00000178      0.00000107      0.0
 <Sep29-2020> <15:18:19>     11      0.00000024      0.00000019      0.0
 <Sep29-2020> <15:18:19>     12      0.00000000      0.00000000      0.0
 <Sep29-2020> <15:18:19>  SCF converged
 <Sep29-2020> <15:18:19>     13      0.00000000      0.00000000      0.0
 <Sep29-2020> <15:18:19>  >>>> POPAN
 <Sep29-2020> <15:18:19>  >>>> DEBYE
 <Sep29-2020> <15:18:19>  NORMAL TERMINATION
 <Sep29-2020> <15:18:19>  END
 <Sep29-2020> <15:18:19>  ADF 2019  RunTime: Sep29-2020 15:18:19  Nodes: 1  Procs: 6
 <Sep29-2020> <15:18:19>  None
 <Sep29-2020> <15:18:19>  RunType   : SINGLE POINT
 <Sep29-2020> <15:18:19>  Net Charge: 0 (Nuclei minus Electrons)
 <Sep29-2020> <15:18:19>  Symmetry  : NOSYM
 <Sep29-2020> <15:18:19>  >>>> FRAGM
  Coordinates
    Atom         X           Y           Z   (Angstrom)
    1.C         0.028048    4.000000   -1.398637
    2.C        -1.196142    4.000000   -0.726724
    3.C        -1.225901    4.000000    0.675156
    4.C        -0.031357    4.000000    1.398568
    5.C         1.197858    4.000000    0.723876
    6.C         1.227499    4.000000   -0.672239
    7.H        -2.130825    4.000000   -1.290309
    8.H        -2.183767    4.000000    1.198588
    9.H        -0.051618    4.000000    2.490132
   10.H         2.129385    4.000000    1.292670
   11.H         2.182522    4.000000   -1.201023
   12.H         0.054266    4.000000   -2.490068
 <Sep29-2020> <15:18:19>  >>>> CORORT
 <Sep29-2020> <15:18:19>  >>>> CLSMAT
 <Sep29-2020> <15:18:19>  >>>> ORTHON
 <Sep29-2020> <15:18:19>  >>>> GENPT
 <Sep29-2020> <15:18:19>  Block Length= 128
 <Sep29-2020> <15:18:19>  >>>> PTBAS
 <Sep29-2020> <15:18:20>  >>>> CYCLE
 <Sep29-2020> <15:18:20>              |Error|         MaxErr       Wt(A-DIIS)
 <Sep29-2020> <15:18:20>      1      5.99101667      0.98027895
 <Sep29-2020> <15:18:20>      2      0.89236290      0.18710598    100.0
 <Sep29-2020> <15:18:20>      3      0.52147519      0.10261001    100.0
 <Sep29-2020> <15:18:20>      4      0.74328264      0.17265986    100.0
 <Sep29-2020> <15:18:20>      5      0.07622975      0.01073125      9.8
 <Sep29-2020> <15:18:21>      6      0.01071126      0.00169692      0.7
 <Sep29-2020> <15:18:21>      7      0.00113718      0.00027354      0.0
 <Sep29-2020> <15:18:21>      8      0.00033573      0.00009339      0.0
 <Sep29-2020> <15:18:21>      9      0.00016408      0.00005024      0.0
 <Sep29-2020> <15:18:21>     10      0.00004455      0.00001209      0.0
 <Sep29-2020> <15:18:21>     11      0.00000388      0.00000093      0.0
 <Sep29-2020> <15:18:22>  SCF converged
 <Sep29-2020> <15:18:22>     12      0.00000087      0.00000012      0.0
 <Sep29-2020> <15:18:22>  >>>> TOTEN
 <Sep29-2020> <15:18:22>  >>>> POPAN
 <Sep29-2020> <15:18:22>  >>>> DEBYE
 <Sep29-2020> <15:18:22>  >>>> AMETS
 <Sep29-2020> <15:18:22>  >>>> POPUL
 <Sep29-2020> <15:18:23>     1 V(1)  0.1843235E+04
 <Sep29-2020> <15:18:23>     2 V(1)  0.1573526E+04
 <Sep29-2020> <15:18:23>     3 V(1)  0.1556244E+04
 <Sep29-2020> <15:18:23>     4 V(1)  0.1562794E+04
 <Sep29-2020> <15:18:24>     5 V(1)  0.1564724E+04
 <Sep29-2020> <15:18:24>     6 V(1)  0.1564679E+04
 <Sep29-2020> <15:18:24>     7 V(1)  0.1564587E+04
 <Sep29-2020> <15:18:24>     8 V(1)  0.1564570E+04
 <Sep29-2020> <15:18:25>     9 V(1)  0.1564568E+04
 <Sep29-2020> <15:18:25>    10 V(1)  0.1564565E+04
 <Sep29-2020> <15:18:25>    11 V(1)  0.1564565E+04
 <Sep29-2020> <15:18:25>   convergence reached
 <Sep29-2020> <15:18:25>     1 V(1)  0.2536154E+02
 <Sep29-2020> <15:18:26>     2 V(1)  0.2328847E+02
 <Sep29-2020> <15:18:26>     3 V(1)  0.2328312E+02
 <Sep29-2020> <15:18:26>     4 V(1)  0.2328237E+02
 <Sep29-2020> <15:18:26>     5 V(1)  0.2328225E+02
 <Sep29-2020> <15:18:27>     6 V(1)  0.2328228E+02
 <Sep29-2020> <15:18:27>   convergence reached
 <Sep29-2020> <15:18:27>     1 V(1)  0.1841059E+04
 <Sep29-2020> <15:18:27>     2 V(1)  0.1571562E+04
 <Sep29-2020> <15:18:27>     3 V(1)  0.1554328E+04
 <Sep29-2020> <15:18:27>     4 V(1)  0.1560866E+04
 <Sep29-2020> <15:18:28>     5 V(1)  0.1562795E+04
 <Sep29-2020> <15:18:28>     6 V(1)  0.1562753E+04
 <Sep29-2020> <15:18:28>     7 V(1)  0.1562663E+04
 <Sep29-2020> <15:18:28>     8 V(1)  0.1562643E+04
 <Sep29-2020> <15:18:29>     9 V(1)  0.1562640E+04
 <Sep29-2020> <15:18:29>    10 V(1)  0.1562638E+04
 <Sep29-2020> <15:18:29>    11 V(1)  0.1562637E+04
 <Sep29-2020> <15:18:29>   convergence reached
 <Sep29-2020> <15:18:29>     1 V(1)  0.1303106E+04
 <Sep29-2020> <15:18:30>     2 V(1)  0.1073818E+04
 <Sep29-2020> <15:18:30>     3 V(1)  0.1106600E+04
 <Sep29-2020> <15:18:30>     4 V(1)  0.1112143E+04
 <Sep29-2020> <15:18:31>     5 V(1)  0.1115453E+04
 <Sep29-2020> <15:18:31>     6 V(1)  0.1115822E+04
 <Sep29-2020> <15:18:31>     7 V(1)  0.1116047E+04
 <Sep29-2020> <15:18:31>     8 V(1)  0.1116050E+04
 <Sep29-2020> <15:18:32>     9 V(1)  0.1116047E+04
 <Sep29-2020> <15:18:32>    10 V(1)  0.1116045E+04
 <Sep29-2020> <15:18:32>    11 V(1)  0.1116046E+04
 <Sep29-2020> <15:18:32>   convergence reached
 <Sep29-2020> <15:18:33>     1 V(1)  0.1057413E+06
 <Sep29-2020> <15:18:33>     2 V(1)  0.8961972E+05
 <Sep29-2020> <15:18:33>     3 V(1)  0.8872534E+05
 <Sep29-2020> <15:18:33>     4 V(1)  0.8935124E+05
 <Sep29-2020> <15:18:34>     5 V(1)  0.8946876E+05
 <Sep29-2020> <15:18:34>     6 V(1)  0.8946532E+05
 <Sep29-2020> <15:18:34>     7 V(1)  0.8945949E+05
 <Sep29-2020> <15:18:34>     8 V(1)  0.8945856E+05
 <Sep29-2020> <15:18:35>     9 V(1)  0.8945834E+05
 <Sep29-2020> <15:18:35>    10 V(1)  0.8945819E+05
 <Sep29-2020> <15:18:35>    11 V(1)  0.8945819E+05
 <Sep29-2020> <15:18:35>   convergence reached
 <Sep29-2020> <15:18:36>     1 V(1)  0.6154335E+03
 <Sep29-2020> <15:18:36>     2 V(1)  0.4705513E+03
 <Sep29-2020> <15:18:36>     3 V(1)  0.4785728E+03
 <Sep29-2020> <15:18:36>     4 V(1)  0.4849017E+03
 <Sep29-2020> <15:18:36>     5 V(1)  0.4855944E+03
 <Sep29-2020> <15:18:37>     6 V(1)  0.4861419E+03
 <Sep29-2020> <15:18:37>     7 V(1)  0.4861931E+03
 <Sep29-2020> <15:18:37>     8 V(1)  0.4861943E+03
 <Sep29-2020> <15:18:37>     9 V(1)  0.4861927E+03
 <Sep29-2020> <15:18:38>    10 V(1)  0.4861924E+03
 <Sep29-2020> <15:18:38>   convergence reached
 <Sep29-2020> <15:18:38>     1 V(1)  0.2748657E+04
 <Sep29-2020> <15:18:38>     2 V(1)  0.2507341E+04
 <Sep29-2020> <15:18:39>     3 V(1)  0.2520077E+04
 <Sep29-2020> <15:18:39>     4 V(1)  0.2520502E+04
 <Sep29-2020> <15:18:39>     5 V(1)  0.2520501E+04
 <Sep29-2020> <15:18:39>   convergence reached
 <Sep29-2020> <15:18:39>     1 V(1)  0.1056168E+06
 <Sep29-2020> <15:18:40>     2 V(1)  0.8950788E+05
 <Sep29-2020> <15:18:40>     3 V(1)  0.8861617E+05
 <Sep29-2020> <15:18:40>     4 V(1)  0.8924118E+05
 <Sep29-2020> <15:18:40>     5 V(1)  0.8935857E+05
 <Sep29-2020> <15:18:41>     6 V(1)  0.8935530E+05
 <Sep29-2020> <15:18:41>     7 V(1)  0.8934959E+05
 <Sep29-2020> <15:18:41>     8 V(1)  0.8934846E+05
 <Sep29-2020> <15:18:42>     9 V(1)  0.8934825E+05
 <Sep29-2020> <15:18:42>    10 V(1)  0.8934808E+05
 <Sep29-2020> <15:18:42>    11 V(1)  0.8934808E+05
 <Sep29-2020> <15:18:42>   convergence reached
 <Sep29-2020> <15:18:42>     1 V(1)  0.1302770E+04
 <Sep29-2020> <15:18:43>     2 V(1)  0.1073643E+04
 <Sep29-2020> <15:18:43>     3 V(1)  0.1106422E+04
 <Sep29-2020> <15:18:43>     4 V(1)  0.1111960E+04
 <Sep29-2020> <15:18:44>     5 V(1)  0.1115265E+04
 <Sep29-2020> <15:18:44>     6 V(1)  0.1115637E+04
 <Sep29-2020> <15:18:44>     7 V(1)  0.1115860E+04
 <Sep29-2020> <15:18:44>     8 V(1)  0.1115864E+04
 <Sep29-2020> <15:18:45>     9 V(1)  0.1115861E+04
 <Sep29-2020> <15:18:45>    10 V(1)  0.1115860E+04
 <Sep29-2020> <15:18:45>    11 V(1)  0.1115860E+04
 <Sep29-2020> <15:18:45>   convergence reached
 <Sep29-2020> <15:18:45>  NORMAL TERMINATION
 <Sep29-2020> <15:18:45>  END
