

 Parallel Execution: Process Information
 ==============================================================================
 Rank   Node Name                              NodeID   MyNodeRank  NodeMaster
    0   magnesium.science.psu.edu                 0          0          0
    1   magnesium.science.psu.edu                 0          1         -1
    2   magnesium.science.psu.edu                 0          2         -1
    3   magnesium.science.psu.edu                 0          3         -1
    4   magnesium.science.psu.edu                 0          4         -1
    5   magnesium.science.psu.edu                 0          5         -1
 ==============================================================================


May use up to 7495MB of RAM as shared memory on node 0
 
TITLE None

ATOMS
1  C     0.02971059    4.00000000   -1.39857883
2  C    -1.19715880    4.00000000   -0.72505650
3  C    -1.22684292    4.00000000    0.67345650
4  C    -0.02971059    4.00000000    1.39857883
5  C     1.19715880    4.00000000    0.72505650
6  C     1.22684292    4.00000000   -0.67346180
7  H    -2.13150804    4.00000000   -1.28920268
8  H    -2.18435982    4.00000000    1.19752914
9  H    -0.05307411    4.00000000    2.49007883
10 H     2.13148686    4.00000000    1.28923444
11 H     2.18444924    4.00000000   -1.19755561
12 H     0.05300587    4.00000000   -2.49007883
END

XC
 gga BP86
end

symmetry nosym

aoresponse
 alda
 frequency 1 3.6 eV
 lifetime 0.0037
 El_Dipole_El_Dipole
 El_Dipole_El_Quadrupole
 El_Quadrupole_El_Quadrupole
 Traceless
end

Fragments
H t21.H
C t21.C
End

 *******************************************************************************
 *                                                                             *
 *  -------------------------------------                                      *
 *   Amsterdam Density Functional  (ADF)         2019                          *
 *  -------------------------------------                                      *
 *                                               r75281 2019-06-03             *
 *                                                                             *
 *                                                                             *
 *                              =================                              *
 *                              |               |                              *
 *                              |     A D F     |                              *
 *                              |               |                              *
 *                              =================                              *
 *                                                                             *
 *                                                                             *
 *   Online information and documentation:  https://www.scm.com/support/       *
 *   E-mail:  support@scm.com   info@scm.com                                   *
 *                                                                             *
 *   Scientific publications using ADF results must be properly referenced     *
 *   See the User Manuals (or the web site) for recommended citations          *
 *   The terms and conditions of the End User License Agreement apply to       *
 *   the use of ADF, https://www.scm.com/license-terms/                        *
 *                                                                             *
 **********************  x86_64_linux_intel / intelmpi  ************************
 
 Licensed to: Prof. Lasse Jensen / Penn State University / University Park / PA  / USA
 SCM User ID: u8493
  
 ADF 2019  RunTime: Sep29-2020 15:16:55  Nodes: 1  Procs: 6

 Temporary files are created in /scratch/kid_0.1288148181


Communication costs MPI_COMM_WORLD:      0.594 usec per message,   0.0078 usec per 8-byte item
Communication costs for intra-node:      0.499 usec per message,   0.0074 usec per 8-byte item

 None



 ===========================
 A T T A C H E D   F I L E S
 ===========================
  



 ===============================
 M O D E L   P A R A M E T E R S
 ===============================
  
 DENSITY FUNCTIONAL POTENTIAL (scf)
    LDA:                               VWN                                      
    Gradient Corrections:              Becke88 Perdew86                        == Not Default ==

 SPIN  (restricted / unrestr.)
    Molecule:                          Restricted                               
    Fragments:                         Restricted                               

 OTHER ASPECTS
    Relativistic Corrections:          ---                                      

    Nuclear Charge Density Model:      Point Charge Nuclei                      
    Core Treatment:                    Frozen Orbital(s)                        

    Hyperfine or Zeeman Interaction:   ---                                      


 Fragment File(s)
 ----------------
 C:
         file : t21.C
         jobid: ADF 2019  RunTime: Sep29-2020 15:16:53  Nodes: 1  Procs: 1
         title: Carbon (TZP)
 H:
         file : t21.H
         jobid: ADF 2019  RunTime: Sep29-2020 15:16:53  Nodes: 1  Procs: 1
         title: Hydrogen (TZP)



                                        ************************************
                                        *  R U N   T Y P E : SINGLE POINT  *
                                        ************************************
  



 ===============
 G E O M E T R Y  ***  Planar Molecule  ***
 ===============
  

 ATOMS
 =====                            X Y Z                    CHARGE
                                (Angstrom)             Nucl     +Core       At.Mass
                       --------------------------    ----------------       -------
    1  C               0.0297    4.0000   -1.3986      6.00      6.00       12.0000
    2  C              -1.1972    4.0000   -0.7251      6.00      6.00       12.0000
    3  C              -1.2268    4.0000    0.6735      6.00      6.00       12.0000
    4  C              -0.0297    4.0000    1.3986      6.00      6.00       12.0000
    5  C               1.1972    4.0000    0.7251      6.00      6.00       12.0000
    6  C               1.2268    4.0000   -0.6735      6.00      6.00       12.0000
    7  H              -2.1315    4.0000   -1.2892      1.00      1.00        1.0078
    8  H              -2.1844    4.0000    1.1975      1.00      1.00        1.0078
    9  H              -0.0531    4.0000    2.4901      1.00      1.00        1.0078
   10  H               2.1315    4.0000    1.2892      1.00      1.00        1.0078
   11  H               2.1844    4.0000   -1.1976      1.00      1.00        1.0078
   12  H               0.0530    4.0000   -2.4901      1.00      1.00        1.0078


 FRAGMENTS
 =========                                     Atoms in this Fragment     Cart. coord.s (Angstrom)
                                               -------------------------------------------------------
    1  C                                                 1  C            0.0297    4.0000   -1.3986
    2  C                                                 2  C           -1.1972    4.0000   -0.7251
    3  C                                                 3  C           -1.2268    4.0000    0.6735
    4  C                                                 4  C           -0.0297    4.0000    1.3986
    5  C                                                 5  C            1.1972    4.0000    0.7251
    6  C                                                 6  C            1.2268    4.0000   -0.6735
    7  H                                                 7  H           -2.1315    4.0000   -1.2892
    8  H                                                 8  H           -2.1844    4.0000    1.1975
    9  H                                                 9  H           -0.0531    4.0000    2.4901
   10  H                                                10  H            2.1315    4.0000    1.2892
   11  H                                                11  H            2.1844    4.0000   -1.1976
   12  H                                                12  H            0.0530    4.0000   -2.4901


 Interatomic Distance Matrix (Angstrom)
 --------------------------------------

   1)     0.000
   2)     1.400   0.000
   3)     2.423   1.399   0.000
   4)     2.798   2.423   1.400   0.000
   5)     2.423   2.799   2.425   1.400   0.000
   6)     1.400   2.425   2.799   2.423   1.399   0.000
   7)     2.164   1.091   2.161   3.412   3.891   3.414   0.000
   8)     3.412   2.161   1.092   2.164   3.414   3.891   2.487   0.000
   9)     3.890   3.413   2.163   1.092   2.163   3.413   4.313   2.493   0.000
  10)     3.412   3.891   3.414   2.164   1.091   2.161   4.982   4.317   2.493   0.000
  11)     2.164   3.414   3.891   3.412   2.161   1.092   4.317   4.982   4.313   2.487
          0.000
  12)     1.092   2.163   3.413   3.890   3.413   2.163   2.493   4.313   4.981   4.313
          2.493   0.000

 Min. Distance =    1.0915
 Max. Distance =    4.9823



 =====================================
 S Y M M E T R Y ,   E L E C T R O N S
 =====================================
  
 Symmetry: NOSYM

 Irreducible Representations, including subspecies
 -------------------------------------------------
 A


 Configuration of Valence Electrons
 ==================================
 ( determined in the SCF procedure )

 Total:   42

 Net Charge: 0 (Nuclei minus Electrons)

 Aufbau principle for MO occupations will be applied through SCF cycle no.     150
 Thereafter, the program will assign electrons to MOs that are spatially
 similar to the occupied MOs in a "reference" cycle ("KeepOrbitals").
 The reference cycle is always the PREVIOUS cycle: it will evolve with
 the SCF procedure.
1
 ***************************************************************************************************



                                      ****************************************
                                      *  B U I L D : (Fragments, Functions)  *
                                      ****************************************
  



 =======
 S F O s  ***  (Symmetrized Fragment Orbitals)  ***
 =======
  
 SFOs are linear combinations of (valence) Fragment Orbitals (FOs), such that the SFOs transform as the
 irreducible representations of the (molecular) symmetry group. Each SFO is therefore characterized by
 an irrep of the molecule and by a few (or only one) generating FOs.
 The SFOs constitute a symmetry-adapted basis for the Fock matrix. The MO eigenvector coefficients in
 this basis provide a direct interpretation of the MOs in terms of Frontier Orbital Theory.

 The SFOs are combined with auxiliary Core Functions (CFs) to ensure orthogonalization on the (frozen)
 Core Orbitals (COs). The Core-orthogonalized SFOs (CSFOs) constitute the true Fock basis.

 The FOs, and hence also the (C)SFOs are combinations of the elementary basis functions (BAS). The basis
 functions that participate in the description of the SFOs depend on the irrep. The indices of the
 involved functions are printed below for each irrep.
 (The complete list of primitive basis functions is printed in another section)

 Total nr. of (C)SFOs (summation over all irreps) :   150

 NOTE: a (C)SFO that is defined as a combination of more than one FO is usually NOT normalized.



                                       === A ===
 Nr. of SFOs :  150
 Cartesian basis functions that participate in this irrep (total number =   156) :
      1     2     3     4     5     6     9    12     7    10
     13     8    11    14    15    16    17    18    19    20
     21    22    23    24    25    26    29    32    27    30
     33    28    31    34    35    36    37    38    39    40
     41    42    43    44    45    46    49    52    47    50
     53    48    51    54    55    56    57    58    59    60
     61    62    63    64    65    66    69    72    67    70
     73    68    71    74    75    76    77    78    79    80
     81    82    83    84    85    86    89    92    87    90
     93    88    91    94    95    96    97    98    99   100
    101   102   103   104   105   106   109   112   107   110
    113   108   111   114   115   116   117   118   119   120
    121   122   123   124   125   126   127   128   129   130
    131   132   133   134   135   136   137   138   139   140
    141   142   143   144   145   146   147   148   149   150
    151   152   153   154   155   156

    SFO  (index         Fragment          Generating    Expansion in Fragment Orbitals
  indx  incl.CFs)   Occup   Orb.Energy   FragmentType  Coeff.   Orbital     on Fragment
 --------------------------------------------------------------------------------------
     1       1      2.000     -10.058 au  C             1.00      1 S               1
                        (    -273.681 eV)
     2       2      2.000      -0.510 au  C             1.00      2 S               1
                        (     -13.876 eV)
     3       3       --         0.371 au  C             1.00      3 S               1
                        (      10.091 eV)
     4       4       --         5.428 au  C             1.00      4 S               1
                        (     147.707 eV)
     5       5       --        50.181 au  C             1.00      5 S               1
                        (    1365.486 eV)
     6       6      0.667      -0.199 au  C             1.00      1 P:x             1
                        (      -5.403 eV)
     7       7       --         0.173 au  C             1.00      2 P:x             1
                        (       4.709 eV)
     8       8       --         2.026 au  C             1.00      3 P:x             1
                        (      55.143 eV)
     9       9      0.667      -0.199 au  C             1.00      1 P:y             1
                        (      -5.403 eV)
    10      10       --         0.173 au  C             1.00      2 P:y             1
                        (       4.709 eV)
    11      11       --         2.026 au  C             1.00      3 P:y             1
                        (      55.143 eV)
    12      12      0.667      -0.199 au  C             1.00      1 P:z             1
                        (      -5.403 eV)
    13      13       --         0.173 au  C             1.00      2 P:z             1
                        (       4.709 eV)
    14      14       --         2.026 au  C             1.00      3 P:z             1
                        (      55.143 eV)
    15      15       --         1.232 au  C             1.00      1 D:z2            1
                        (      33.528 eV)
    16      16       --         1.232 au  C             1.00      1 D:x2-y2         1
                        (      33.528 eV)
    17      17       --         1.232 au  C             1.00      1 D:xy            1
                        (      33.528 eV)
    18      18       --         1.232 au  C             1.00      1 D:xz            1
                        (      33.528 eV)
    19      19       --         1.232 au  C             1.00      1 D:yz            1
                        (      33.528 eV)
    20      20      2.000     -10.058 au  C             1.00      1 S               2
                        (    -273.681 eV)
    21      21      2.000      -0.510 au  C             1.00      2 S               2
                        (     -13.876 eV)
    22      22       --         0.371 au  C             1.00      3 S               2
                        (      10.091 eV)
    23      23       --         5.428 au  C             1.00      4 S               2
                        (     147.707 eV)
    24      24       --        50.181 au  C             1.00      5 S               2
                        (    1365.486 eV)
    25      25      0.667      -0.199 au  C             1.00      1 P:x             2
                        (      -5.403 eV)
    26      26       --         0.173 au  C             1.00      2 P:x             2
                        (       4.709 eV)
    27      27       --         2.026 au  C             1.00      3 P:x             2
                        (      55.143 eV)
    28      28      0.667      -0.199 au  C             1.00      1 P:y             2
                        (      -5.403 eV)
    29      29       --         0.173 au  C             1.00      2 P:y             2
                        (       4.709 eV)
    30      30       --         2.026 au  C             1.00      3 P:y             2
                        (      55.143 eV)
    31      31      0.667      -0.199 au  C             1.00      1 P:z             2
                        (      -5.403 eV)
    32      32       --         0.173 au  C             1.00      2 P:z             2
                        (       4.709 eV)
    33      33       --         2.026 au  C             1.00      3 P:z             2
                        (      55.143 eV)
    34      34       --         1.232 au  C             1.00      1 D:z2            2
                        (      33.528 eV)
    35      35       --         1.232 au  C             1.00      1 D:x2-y2         2
                        (      33.528 eV)
    36      36       --         1.232 au  C             1.00      1 D:xy            2
                        (      33.528 eV)
    37      37       --         1.232 au  C             1.00      1 D:xz            2
                        (      33.528 eV)
    38      38       --         1.232 au  C             1.00      1 D:yz            2
                        (      33.528 eV)
    39      39      2.000     -10.058 au  C             1.00      1 S               3
                        (    -273.681 eV)
    40      40      2.000      -0.510 au  C             1.00      2 S               3
                        (     -13.876 eV)
    41      41       --         0.371 au  C             1.00      3 S               3
                        (      10.091 eV)
    42      42       --         5.428 au  C             1.00      4 S               3
                        (     147.707 eV)
    43      43       --        50.181 au  C             1.00      5 S               3
                        (    1365.486 eV)
    44      44      0.667      -0.199 au  C             1.00      1 P:x             3
                        (      -5.403 eV)
    45      45       --         0.173 au  C             1.00      2 P:x             3
                        (       4.709 eV)
    46      46       --         2.026 au  C             1.00      3 P:x             3
                        (      55.143 eV)
    47      47      0.667      -0.199 au  C             1.00      1 P:y             3
                        (      -5.403 eV)
    48      48       --         0.173 au  C             1.00      2 P:y             3
                        (       4.709 eV)
    49      49       --         2.026 au  C             1.00      3 P:y             3
                        (      55.143 eV)
    50      50      0.667      -0.199 au  C             1.00      1 P:z             3
                        (      -5.403 eV)
    51      51       --         0.173 au  C             1.00      2 P:z             3
                        (       4.709 eV)
    52      52       --         2.026 au  C             1.00      3 P:z             3
                        (      55.143 eV)
    53      53       --         1.232 au  C             1.00      1 D:z2            3
                        (      33.528 eV)
    54      54       --         1.232 au  C             1.00      1 D:x2-y2         3
                        (      33.528 eV)
    55      55       --         1.232 au  C             1.00      1 D:xy            3
                        (      33.528 eV)
    56      56       --         1.232 au  C             1.00      1 D:xz            3
                        (      33.528 eV)
    57      57       --         1.232 au  C             1.00      1 D:yz            3
                        (      33.528 eV)
    58      58      2.000     -10.058 au  C             1.00      1 S               4
                        (    -273.681 eV)
    59      59      2.000      -0.510 au  C             1.00      2 S               4
                        (     -13.876 eV)
    60      60       --         0.371 au  C             1.00      3 S               4
                        (      10.091 eV)
    61      61       --         5.428 au  C             1.00      4 S               4
                        (     147.707 eV)
    62      62       --        50.181 au  C             1.00      5 S               4
                        (    1365.486 eV)
    63      63      0.667      -0.199 au  C             1.00      1 P:x             4
                        (      -5.403 eV)
    64      64       --         0.173 au  C             1.00      2 P:x             4
                        (       4.709 eV)
    65      65       --         2.026 au  C             1.00      3 P:x             4
                        (      55.143 eV)
    66      66      0.667      -0.199 au  C             1.00      1 P:y             4
                        (      -5.403 eV)
    67      67       --         0.173 au  C             1.00      2 P:y             4
                        (       4.709 eV)
    68      68       --         2.026 au  C             1.00      3 P:y             4
                        (      55.143 eV)
    69      69      0.667      -0.199 au  C             1.00      1 P:z             4
                        (      -5.403 eV)
    70      70       --         0.173 au  C             1.00      2 P:z             4
                        (       4.709 eV)
    71      71       --         2.026 au  C             1.00      3 P:z             4
                        (      55.143 eV)
    72      72       --         1.232 au  C             1.00      1 D:z2            4
                        (      33.528 eV)
    73      73       --         1.232 au  C             1.00      1 D:x2-y2         4
                        (      33.528 eV)
    74      74       --         1.232 au  C             1.00      1 D:xy            4
                        (      33.528 eV)
    75      75       --         1.232 au  C             1.00      1 D:xz            4
                        (      33.528 eV)
    76      76       --         1.232 au  C             1.00      1 D:yz            4
                        (      33.528 eV)
    77      77      2.000     -10.058 au  C             1.00      1 S               5
                        (    -273.681 eV)
    78      78      2.000      -0.510 au  C             1.00      2 S               5
                        (     -13.876 eV)
    79      79       --         0.371 au  C             1.00      3 S               5
                        (      10.091 eV)
    80      80       --         5.428 au  C             1.00      4 S               5
                        (     147.707 eV)
    81      81       --        50.181 au  C             1.00      5 S               5
                        (    1365.486 eV)
    82      82      0.667      -0.199 au  C             1.00      1 P:x             5
                        (      -5.403 eV)
    83      83       --         0.173 au  C             1.00      2 P:x             5
                        (       4.709 eV)
    84      84       --         2.026 au  C             1.00      3 P:x             5
                        (      55.143 eV)
    85      85      0.667      -0.199 au  C             1.00      1 P:y             5
                        (      -5.403 eV)
    86      86       --         0.173 au  C             1.00      2 P:y             5
                        (       4.709 eV)
    87      87       --         2.026 au  C             1.00      3 P:y             5
                        (      55.143 eV)
    88      88      0.667      -0.199 au  C             1.00      1 P:z             5
                        (      -5.403 eV)
    89      89       --         0.173 au  C             1.00      2 P:z             5
                        (       4.709 eV)
    90      90       --         2.026 au  C             1.00      3 P:z             5
                        (      55.143 eV)
    91      91       --         1.232 au  C             1.00      1 D:z2            5
                        (      33.528 eV)
    92      92       --         1.232 au  C             1.00      1 D:x2-y2         5
                        (      33.528 eV)
    93      93       --         1.232 au  C             1.00      1 D:xy            5
                        (      33.528 eV)
    94      94       --         1.232 au  C             1.00      1 D:xz            5
                        (      33.528 eV)
    95      95       --         1.232 au  C             1.00      1 D:yz            5
                        (      33.528 eV)
    96      96      2.000     -10.058 au  C             1.00      1 S               6
                        (    -273.681 eV)
    97      97      2.000      -0.510 au  C             1.00      2 S               6
                        (     -13.876 eV)
    98      98       --         0.371 au  C             1.00      3 S               6
                        (      10.091 eV)
    99      99       --         5.428 au  C             1.00      4 S               6
                        (     147.707 eV)
   100     100       --        50.181 au  C             1.00      5 S               6
                        (    1365.486 eV)
   101     101      0.667      -0.199 au  C             1.00      1 P:x             6
                        (      -5.403 eV)
   102     102       --         0.173 au  C             1.00      2 P:x             6
                        (       4.709 eV)
   103     103       --         2.026 au  C             1.00      3 P:x             6
                        (      55.143 eV)
   104     104      0.667      -0.199 au  C             1.00      1 P:y             6
                        (      -5.403 eV)
   105     105       --         0.173 au  C             1.00      2 P:y             6
                        (       4.709 eV)
   106     106       --         2.026 au  C             1.00      3 P:y             6
                        (      55.143 eV)
   107     107      0.667      -0.199 au  C             1.00      1 P:z             6
                        (      -5.403 eV)
   108     108       --         0.173 au  C             1.00      2 P:z             6
                        (       4.709 eV)
   109     109       --         2.026 au  C             1.00      3 P:z             6
                        (      55.143 eV)
   110     110       --         1.232 au  C             1.00      1 D:z2            6
                        (      33.528 eV)
   111     111       --         1.232 au  C             1.00      1 D:x2-y2         6
                        (      33.528 eV)
   112     112       --         1.232 au  C             1.00      1 D:xy            6
                        (      33.528 eV)
   113     113       --         1.232 au  C             1.00      1 D:xz            6
                        (      33.528 eV)
   114     114       --         1.232 au  C             1.00      1 D:yz            6
                        (      33.528 eV)
   115     115      1.000      -0.244 au  H             1.00      1 S               7
                        (      -6.626 eV)
   116     116       --         0.093 au  H             1.00      2 S               7
                        (       2.536 eV)
   117     117       --         1.515 au  H             1.00      3 S               7
                        (      41.236 eV)
   118     118       --         0.400 au  H             1.00      1 P:x             7
                        (      10.872 eV)
   119     119       --         0.400 au  H             1.00      1 P:y             7
                        (      10.872 eV)
   120     120       --         0.400 au  H             1.00      1 P:z             7
                        (      10.872 eV)
   121     121      1.000      -0.244 au  H             1.00      1 S               8
                        (      -6.626 eV)
   122     122       --         0.093 au  H             1.00      2 S               8
                        (       2.536 eV)
   123     123       --         1.515 au  H             1.00      3 S               8
                        (      41.236 eV)
   124     124       --         0.400 au  H             1.00      1 P:x             8
                        (      10.872 eV)
   125     125       --         0.400 au  H             1.00      1 P:y             8
                        (      10.872 eV)
   126     126       --         0.400 au  H             1.00      1 P:z             8
                        (      10.872 eV)
   127     127      1.000      -0.244 au  H             1.00      1 S               9
                        (      -6.626 eV)
   128     128       --         0.093 au  H             1.00      2 S               9
                        (       2.536 eV)
   129     129       --         1.515 au  H             1.00      3 S               9
                        (      41.236 eV)
   130     130       --         0.400 au  H             1.00      1 P:x             9
                        (      10.872 eV)
   131     131       --         0.400 au  H             1.00      1 P:y             9
                        (      10.872 eV)
   132     132       --         0.400 au  H             1.00      1 P:z             9
                        (      10.872 eV)
   133     133      1.000      -0.244 au  H             1.00      1 S              10
                        (      -6.626 eV)
   134     134       --         0.093 au  H             1.00      2 S              10
                        (       2.536 eV)
   135     135       --         1.515 au  H             1.00      3 S              10
                        (      41.236 eV)
   136     136       --         0.400 au  H             1.00      1 P:x            10
                        (      10.872 eV)
   137     137       --         0.400 au  H             1.00      1 P:y            10
                        (      10.872 eV)
   138     138       --         0.400 au  H             1.00      1 P:z            10
                        (      10.872 eV)
   139     139      1.000      -0.244 au  H             1.00      1 S              11
                        (      -6.626 eV)
   140     140       --         0.093 au  H             1.00      2 S              11
                        (       2.536 eV)
   141     141       --         1.515 au  H             1.00      3 S              11
                        (      41.236 eV)
   142     142       --         0.400 au  H             1.00      1 P:x            11
                        (      10.872 eV)
   143     143       --         0.400 au  H             1.00      1 P:y            11
                        (      10.872 eV)
   144     144       --         0.400 au  H             1.00      1 P:z            11
                        (      10.872 eV)
   145     145      1.000      -0.244 au  H             1.00      1 S              12
                        (      -6.626 eV)
   146     146       --         0.093 au  H             1.00      2 S              12
                        (       2.536 eV)
   147     147       --         1.515 au  H             1.00      3 S              12
                        (      41.236 eV)
   148     148       --         0.400 au  H             1.00      1 P:x            12
                        (      10.872 eV)
   149     149       --         0.400 au  H             1.00      1 P:y            12
                        (      10.872 eV)
   150     150       --         0.400 au  H             1.00      1 P:z            12
                        (      10.872 eV)



 ================================
 (Slater-type)  F U N C T I O N S  ***  (Basis and Fit)  ***
 ================================
  

 Atom Type    1  (C)
 ==============

 Valence Basis Sets:   9
 -----------------------
   1 S    7.680000
   1 S    5.000000
   2 S    1.280000
   2 S    2.100000
   2 S    4.600000
   2 P    0.820000
   2 P    1.480000
   2 P    2.940000
   3 D    2.200000

 Atom Type    2  (H)
 ==============

 Valence Basis Sets:   4
 -----------------------
   1 S    0.690000
   1 S    0.920000
   1 S    1.580000
   2 P    1.250000


 BAS: List of all Elementary Cartesian Basis Functions
 =====================================================

 The numbering in the list below (to the right of the function characteristics) is referred
 to in print-outs of MO eigenvectors and Mulliken populations in the BAS representation
 (as contrasted to the SFO representation).

 Notes:
 1. The functions are characterized by a polynomial prefactor (powers of x,y,z and r) and
    an exponential decay factor alpha.
 2. Since the basis sets are specific for an atom TYPE, the individual functions occur on
    all atoms of that type.
 3. The word 'Core' in the left margin signals that it is a Core Function (CF) : not a
    degree of freedom in the valence set, but only used to ensure orthogonalization of
    the other valence basis functions on the frozen Core Orbitals.


 (power of) X  Y  Z  R     Alpha  on Atom
            ==========     =====     ==========

 C                                    1    2    3    4    5    6
                                  ---------------------------------------------------------------------------
            0  0  0  0     7.680      1   21   41   61   81  101
            0  0  0  0     5.000      2   22   42   62   82  102
            0  0  0  1     1.280      3   23   43   63   83  103
            0  0  0  1     2.100      4   24   44   64   84  104
            0  0  0  1     4.600      5   25   45   65   85  105
            1  0  0  0     0.820      6   26   46   66   86  106
            0  1  0  0     0.820      7   27   47   67   87  107
            0  0  1  0     0.820      8   28   48   68   88  108
            1  0  0  0     1.480      9   29   49   69   89  109
            0  1  0  0     1.480     10   30   50   70   90  110
            0  0  1  0     1.480     11   31   51   71   91  111
            1  0  0  0     2.940     12   32   52   72   92  112
            0  1  0  0     2.940     13   33   53   73   93  113
            0  0  1  0     2.940     14   34   54   74   94  114
            2  0  0  0     2.200     15   35   55   75   95  115
            1  1  0  0     2.200     16   36   56   76   96  116
            1  0  1  0     2.200     17   37   57   77   97  117
            0  2  0  0     2.200     18   38   58   78   98  118
            0  1  1  0     2.200     19   39   59   79   99  119
            0  0  2  0     2.200     20   40   60   80  100  120

 H                                    7    8    9   10   11   12
                                  ---------------------------------------------------------------------------
            0  0  0  0     0.690    121  127  133  139  145  151
            0  0  0  0     0.920    122  128  134  140  146  152
            0  0  0  0     1.580    123  129  135  141  147  153
            1  0  0  0     1.250    124  130  136  142  148  154
            0  1  0  0     1.250    125  131  137  143  149  155
            0  0  1  0     1.250    126  132  138  144  150  156

 Total number of charge fitting functions (nprimf)       804
 Total number of Cartesian basis functions (naos)        156
 Total number of Cartesian core functions  (ncos)          0

1
 ***************************************************************************************************



                                              ***********************
                                              *  T E C H N I C A L  *
                                              ***********************
  



 =============================================================
 P A R A L L E L I Z A T I O N  and  V E C T O R I Z A T I O N
 =============================================================
  
 Nr of parallel processes:                                6
 Maximum vector length in NumInt loops:                 128



 =====================
 S C F   U P D A T E S
 =====================
  
 Max. nr. of cycles:                               300
 Convergence criterion:                              0.0000010000
   secondary criterion:                              0.0010000000

 Mix parameter (when DIIS does not apply):           0.2000000000
 Mixed ADIIS+SDIIS will be used                  
    Max number of expansion vectors:                10
    Pure ADIIS when Max([F,P]) is above              0.1000000000
    Pure SDIIS when Max([F,P]) is below              0.0010000000
 Automatic ElectronSmearing (in case of problematic SCF convergence) disabled



 =================
 P R E C I S I O N  ***  (General: NumInt, NeglectFunctionTails, ...)  ***
 =================
  

 NumInt:           Target precision:                 4.0000000000
 -------           Initial precision:                4.0000000000
                   Min. precision (optimization):    4.0000000000

 Neglect Functions:          Basis functions:        0.1000000000E-13
 ------------------          Fit functions:          0.1000000000E-13



 ===========================
 L I N E A R   S C A L I N G
 ===========================
  

 Cut-off radii density fit:                        0.1000000000E-07
 Overlap cut-off criterion AO matrix elements:     0.1000000000E-05
 Cut-offs for Coulomb potential and fitted density:0.1000000000E-07
 Cut-off criterion for Coulomb multipole terms:    0.1000000000E-07
 Progressive Convergence parameter:                 0.000000000    
1
 ***************************************************************************************************



                                            ***************************
                                            *  C O M P U T A T I O N  *
                                            ***************************
  

 Number of elements of the density matrix on this node (used, total):      1962     12246



 ===========================================
 Numerical Integration : Fuzzy Cells (Becke)
 ===========================================
  
 Becke grid quality: NORMAL         
  
 Lebedev angular grid order:             min:  11 max:  23
 Nr. of radial points:                   min:  46 max:  52

 Total nr. of points:      75660
 Nr. of blocks:              592
 Block length:               128
 Nr. of dummy points:        116


 Test of Precision of the Numerical Integration Grid
 ===================================================

 Integral of the Total Core Density:                   0.00000000000000



 ========================
 Density Fitting (zlmFit)
 ========================
  
 ZlmFit Fit Quality: NORMAL         
  
 Max L-expansion:                        min:   5 max:   6
 Nr. of radial interpolation points:     min:  36 max:  48



 =====
 S C F  ***  ScaSCF  ***
 =====
  
 Initial density matrix is calculated as sum of fragments

 CYCLE    1
 SCF Error: norm([F,P])=      5.990933528264, max([F,P])=      0.980361992940
 orbitals (Q,E):
 ---------------
 A :12...31          ( 2.00    -0.6583)  ( 2.00    -0.6250)  ( 2.00    -0.5884)  ( 2.00    -0.5692)
                     ( 2.00    -0.5688)  ( 2.00    -0.5031)  ( 2.00    -0.5017)  ( 2.00    -0.5015)
                     ( 2.00    -0.4057)  ( 2.00    -0.4054)  ( 0.00    -0.2152)  ( 0.00    -0.2150)
                     ( 0.00    -0.0768)  ( 0.00    -0.0731)  ( 0.00    -0.0376)  ( 0.00    -0.0375)
                     ( 0.00    -0.0113)  ( 0.00    -0.0109)  ( 0.00     0.0270)  ( 0.00     0.0510)

 CYCLE    2
   MIX coefficients:  0.8000  0.2000
 SCF Error: norm([F,P])=      0.892328837034, max([F,P])=      0.186924695346
 orbitals (Q,E):
 ---------------
 A :12...22          ( 2.00    -0.5946)  ( 2.00    -0.5421)  ( 2.00    -0.5328)  ( 2.00    -0.5023)
                     ( 2.00    -0.5019)  ( 2.00    -0.4366)  ( 2.00    -0.4345)  ( 2.00    -0.4342)
                     ( 2.00    -0.3390)  ( 2.00    -0.3387)  ( 0.00    -0.1502)

 CYCLE    3
  SDIIS (wt  0.000): -1.2669  2.2669
 A-DIIS (wt  1.000):  0.0000  1.0000
  DIIS coefficients:  0.0000  1.0000
 SCF Error: norm([F,P])=      0.521455723367, max([F,P])=      0.102528476385
 orbitals (Q,E):
 ---------------
 A :12...22          ( 2.00    -0.3985)  ( 2.00    -0.3564)  ( 2.00    -0.2967)  ( 2.00    -0.2963)
                     ( 2.00    -0.2951)  ( 2.00    -0.2475)  ( 2.00    -0.2228)  ( 2.00    -0.2226)
                     ( 2.00    -0.1499)  ( 2.00    -0.1498)  ( 0.00     0.0285)

 CYCLE    4
  SDIIS (wt  0.000):  0.1837  0.3521  0.4642
 A-DIIS (wt  1.000):  0.0000  0.6402  0.3598
  DIIS coefficients:  0.0000  0.6402  0.3598
 SCF Error: norm([F,P])=      0.743255805390, max([F,P])=      0.172531648646
 orbitals (Q,E):
 ---------------
 A :12...22          ( 2.00    -0.4673)  ( 2.00    -0.4037)  ( 2.00    -0.3933)  ( 2.00    -0.3709)
                     ( 2.00    -0.3706)  ( 2.00    -0.3293)  ( 2.00    -0.2971)  ( 2.00    -0.2968)
                     ( 2.00    -0.2287)  ( 2.00    -0.2285)  ( 0.00    -0.0405)

 CYCLE    5
  SDIIS (wt  0.902): -0.0172  0.2159  0.0732  0.7280
 A-DIIS (wt  0.098):  0.0000  0.0000  0.0000  1.0000
  DIIS coefficients: -0.0155  0.1947  0.0660  0.7548
 SCF Error: norm([F,P])=      0.076224584297, max([F,P])=      0.010724610367
 orbitals (Q,E):
 ---------------
 A :12...22          ( 2.00    -0.4793)  ( 2.00    -0.4187)  ( 2.00    -0.4084)  ( 2.00    -0.3828)
                     ( 2.00    -0.3825)  ( 2.00    -0.3380)  ( 2.00    -0.3111)  ( 2.00    -0.3108)
                     ( 2.00    -0.2385)  ( 2.00    -0.2383)  ( 0.00    -0.0510)

 CYCLE    6
  SDIIS (wt  0.993): -0.0029  0.0315  0.0082  0.1926  0.7705
 A-DIIS (wt  0.007):  0.0000  0.0000  0.0000  0.0000  1.0000
  DIIS coefficients: -0.0028  0.0313  0.0082  0.1913  0.7721
 SCF Error: norm([F,P])=      0.010707808228, max([F,P])=      0.001696651420
 orbitals (Q,E):
 ---------------
 A :12...22          ( 2.00    -0.4790)  ( 2.00    -0.4180)  ( 2.00    -0.4074)  ( 2.00    -0.3826)
                     ( 2.00    -0.3823)  ( 2.00    -0.3374)  ( 2.00    -0.3105)  ( 2.00    -0.3102)
                     ( 2.00    -0.2378)  ( 2.00    -0.2376)  ( 0.00    -0.0503)

 CYCLE    7
  SDIIS (wt  1.000):  0.0009  0.0021  0.0003  0.0242  0.1261  0.8465
  DIIS coefficients:  0.0009  0.0021  0.0003  0.0242  0.1261  0.8465
 SCF Error: norm([F,P])=      0.001144685341, max([F,P])=      0.000275328315
 orbitals (Q,E):
 ---------------
 A :12...22          ( 2.00    -0.4791)  ( 2.00    -0.4181)  ( 2.00    -0.4075)  ( 2.00    -0.3828)
                     ( 2.00    -0.3824)  ( 2.00    -0.3376)  ( 2.00    -0.3106)  ( 2.00    -0.3104)
                     ( 2.00    -0.2380)  ( 2.00    -0.2377)  ( 0.00    -0.0504)

 CYCLE    8
  SDIIS (wt  1.000):  0.0006  0.0006  0.0000  0.0101  0.0565  0.4533  0.4790
  DIIS coefficients:  0.0006  0.0006  0.0000  0.0101  0.0565  0.4533  0.4790
 SCF Error: norm([F,P])=      0.000384834444, max([F,P])=      0.000093698908
 orbitals (Q,E):
 ---------------
 A :12...22          ( 2.00    -0.4791)  ( 2.00    -0.4181)  ( 2.00    -0.4075)  ( 2.00    -0.3827)
                     ( 2.00    -0.3824)  ( 2.00    -0.3376)  ( 2.00    -0.3106)  ( 2.00    -0.3104)
                     ( 2.00    -0.2380)  ( 2.00    -0.2377)  ( 0.00    -0.0504)

 CYCLE    9
  SDIIS (wt  1.000):  0.0001 -0.0002 -0.0000 -0.0004 -0.0008  0.0144  0.2780  0.7090
  DIIS coefficients:  0.0001 -0.0002 -0.0000 -0.0004 -0.0008  0.0144  0.2780  0.7090
 SCF Error: norm([F,P])=      0.000145624085, max([F,P])=      0.000036643523
 orbitals (Q,E):
 ---------------
 A :12...22          ( 2.00    -0.4791)  ( 2.00    -0.4181)  ( 2.00    -0.4076)  ( 2.00    -0.3828)
                     ( 2.00    -0.3824)  ( 2.00    -0.3376)  ( 2.00    -0.3106)  ( 2.00    -0.3104)
                     ( 2.00    -0.2380)  ( 2.00    -0.2377)  ( 0.00    -0.0504)

 CYCLE   10
  SDIIS (wt  1.000):  0.0001 -0.0001 -0.0000 -0.0002 -0.0005  0.0074  0.1507  0.3864  0.4563
  DIIS coefficients:  0.0001 -0.0001 -0.0000 -0.0002 -0.0005  0.0074  0.1507  0.3864  0.4563
 SCF Error: norm([F,P])=      0.000010541879, max([F,P])=      0.000002451990
 orbitals (Q,E):
 ---------------
 A :12...22          ( 2.00    -0.4791)  ( 2.00    -0.4181)  ( 2.00    -0.4076)  ( 2.00    -0.3828)
                     ( 2.00    -0.3824)  ( 2.00    -0.3376)  ( 2.00    -0.3106)  ( 2.00    -0.3104)
                     ( 2.00    -0.2380)  ( 2.00    -0.2377)  ( 0.00    -0.0504)

 CYCLE   11
  SDIIS (wt  1.000):  0.0000 -0.0000 -0.0000  0.0000 -0.0000 -0.0001 -0.0014 -0.0024  0.4073  0.5966
  DIIS coefficients:  0.0000 -0.0000 -0.0000  0.0000 -0.0000 -0.0001 -0.0014 -0.0024  0.4073  0.5966
 SCF Error: norm([F,P])=      0.000007188175, max([F,P])=      0.000001737582
 orbitals (Q,E):
 ---------------
 A :12...22          ( 2.00    -0.4791)  ( 2.00    -0.4181)  ( 2.00    -0.4076)  ( 2.00    -0.3828)
                     ( 2.00    -0.3824)  ( 2.00    -0.3376)  ( 2.00    -0.3106)  ( 2.00    -0.3104)
                     ( 2.00    -0.2380)  ( 2.00    -0.2377)  ( 0.00    -0.0504)

 CYCLE   12
  SDIIS (wt  1.000): -0.0000 -0.0000  0.0000 -0.0000 -0.0001 -0.0013 -0.0032  0.1116  0.1662  0.7268
  DIIS coefficients: -0.0000 -0.0000  0.0000 -0.0000 -0.0001 -0.0013 -0.0032  0.1116  0.1662  0.7268
 SCF Error: norm([F,P])=      0.000000128679, max([F,P])=      0.000000019469
 orbitals (Q,E):
 ---------------
 A :12...22          ( 2.00    -0.4791)  ( 2.00    -0.4181)  ( 2.00    -0.4076)  ( 2.00    -0.3828)
                     ( 2.00    -0.3824)  ( 2.00    -0.3376)  ( 2.00    -0.3106)  ( 2.00    -0.3104)
                     ( 2.00    -0.2380)  ( 2.00    -0.2377)  ( 0.00    -0.0504)

 SCF CONVERGED

 CYCLE   13
1
 ***************************************************************************************************



                                                *******************
                                                *  R E S U L T S  *
                                                *******************
  
 *** Using FIT density in Focky
  SDIIS (wt  1.000): -0.0000  0.0000 -0.0000 -0.0000 -0.0005 -0.0011  0.0410  0.0612  0.3497  0.5497
  DIIS coefficients: -0.0000  0.0000 -0.0000 -0.0000 -0.0005 -0.0011  0.0410  0.0612  0.3497  0.5497
 SCF Error: norm([F,P])=      0.000000053400, max([F,P])=      0.000000011745

 Orbital Energies, per Irrep and Spin:
 ======================================
                        Occup              E (au)              E (eV)       Diff (eV) with prev. cycle
                        -----      --------------------        ------       --------------------------
 A
              12        2.000     -0.47913247902786E+00       -13.038              -5.48E-09
              13        2.000     -0.41810823368192E+00       -11.377              -5.58E-09
              14        2.000     -0.40755248914676E+00       -11.090               6.02E-10
              15        2.000     -0.38275326750231E+00       -10.415               5.04E-09
              16        2.000     -0.38240717202480E+00       -10.406              -1.30E-08
              17        2.000     -0.33758081943653E+00        -9.186              -3.26E-09
              18        2.000     -0.31062922898680E+00        -8.453               4.04E-09
              19        2.000     -0.31037535033108E+00        -8.446              -8.75E-09
              20        2.000     -0.23796393759854E+00        -6.475               3.91E-09
              21        2.000     -0.23774027412671E+00        -6.469              -8.66E-09
              22        0.000     -0.50441463971400E-01        -1.373
              23        0.000     -0.50277962245708E-01        -1.368
              24        0.000      0.20335742401623E-02         0.055
              25        0.000      0.27782293279312E-01         0.756
              26        0.000      0.27917712945230E-01         0.760
              27        0.000      0.60652504996634E-01         1.650
              28        0.000      0.60822460906876E-01         1.655
              29        0.000      0.90658952995199E-01         2.467
              30        0.000      0.96118525563584E-01         2.616
              31        0.000      0.14212186967077E+00         3.867
  
 HOMO :       21 A                -0.23774027412671E+00
 LUMO :       22 A                -0.50441463971400E-01
  


 All Electron Calculation, thus no Orbital Energies of the Core Orbitals are calculated


 Fit test: (difference of exact and fit density, squared integrated, result summed over spins)
         Sum-of-Fragments:                             0.00000000048364
         Orthogonalized Fragments:                     0.00013298158971
         SCF:                                          0.00048707678501



 ==========================
 Electron Density at Nuclei
 ==========================
  
 The electron density is calculated at points on a small sphere around the center of a nucleus.
 The printed electron density is the average electron density on these points.
 The radius of the sphere is the printed approximate finite nuclear radius.

         Atom        Nuclear Radius (Angstrom)             Electron Density (a.u.)
         ----        -------------------------             -----------------------
     1)   C                 0.0000320678                              126.51409
     2)   C                 0.0000320678                              126.51585
     3)   C                 0.0000320678                              126.51479
     4)   C                 0.0000320678                              126.51409
     5)   C                 0.0000320678                              126.51585
     6)   C                 0.0000320678                              126.51476
     7)   H                 0.0000181514                                0.49874
     8)   H                 0.0000181514                                0.49870
     9)   H                 0.0000181514                                0.49863
    10)   H                 0.0000181514                                0.49875
    11)   H                 0.0000181514                                0.49864
    12)   H                 0.0000181514                                0.49863



 =======================================
 M U L L I K E N   P O P U L A T I O N S
 =======================================
  
 The survey below gives for each atom:
 a) the total charge (Z minus electrons)
 b) the net spin polarization (nr of electrons spin-A minus spin-B)
 c) for each spin the atomic electron valence density (integrated) per L-value.

 Atom              Charge    Spin density          S         P         D         F
 ----              ------    ------------       ------    ------    ------    ------
 1 C               0.1748                       3.0652    2.6990    0.0609    0.0000
 2 C               0.1760                       3.0648    2.6982    0.0610    0.0000
 3 C               0.1758                       3.0648    2.6984    0.0610    0.0000
 4 C               0.1748                       3.0652    2.6990    0.0609    0.0000
 5 C               0.1760                       3.0648    2.6982    0.0610    0.0000
 6 C               0.1758                       3.0649    2.6984    0.0610    0.0000
 7 H              -0.1759                       1.1045    0.0715    0.0000    0.0000
 8 H              -0.1757                       1.1043    0.0714    0.0000    0.0000
 9 H              -0.1750                       1.1036    0.0714    0.0000    0.0000
 10 H             -0.1759                       1.1045    0.0715    0.0000    0.0000
 11 H             -0.1756                       1.1042    0.0714    0.0000    0.0000
 12 H             -0.1750                       1.1036    0.0714    0.0000    0.0000

 Populations of individual BAS functions
 ----------------------------------------
 1 C            0.4869  1.5145  0.2301  0.8872 -0.0535 -0.1027  0.1475 -0.2378  0.8053  0.6780
                0.8824  0.2000  0.1366  0.1899  0.0268  0.0122  0.0174 -0.0175  0.0040  0.0181
 2 C            0.4870  1.5144  0.2296  0.8874 -0.0535 -0.2029  0.1472 -0.1394  0.8622  0.6781
                0.8264  0.1925  0.1366  0.1974  0.0182  0.0062  0.0220 -0.0176  0.0100  0.0221
 3 C            0.4870  1.5144  0.2296  0.8873 -0.0535 -0.2076  0.1474 -0.1343  0.8648  0.6781
                0.8235  0.1922  0.1366  0.1978  0.0180  0.0059  0.0216 -0.0175  0.0103  0.0227
 4 C            0.4869  1.5145  0.2301  0.8872 -0.0535 -0.1027  0.1475 -0.2378  0.8053  0.6780
                0.8824  0.2000  0.1366  0.1899  0.0268  0.0122  0.0174 -0.0175  0.0040  0.0181
 5 C            0.4870  1.5144  0.2296  0.8874 -0.0535 -0.2028  0.1472 -0.1394  0.8622  0.6781
                0.8264  0.1925  0.1366  0.1974  0.0182  0.0062  0.0220 -0.0176  0.0100  0.0221
 6 C            0.4870  1.5144  0.2297  0.8873 -0.0535 -0.2076  0.1474 -0.1343  0.8648  0.6781
                0.8235  0.1922  0.1366  0.1978  0.0180  0.0059  0.0216 -0.0175  0.0103  0.0227
 7 H            0.2097  0.5759  0.3188  0.0289  0.0217  0.0208
 8 H            0.2093  0.5761  0.3188  0.0295  0.0217  0.0202
 9 H            0.2085  0.5762  0.3189  0.0162  0.0217  0.0334
 10 H           0.2097  0.5759  0.3188  0.0289  0.0217  0.0208
 11 H           0.2093  0.5762  0.3188  0.0295  0.0217  0.0202
 12 H           0.2085  0.5762  0.3189  0.0162  0.0217  0.0334

 Gross Charges per Atom (Z minus electrons)
 ==========================================
             0.1748    0.1760    0.1758    0.1748    0.1760    0.1758   -0.1759   -0.1757   -0.1750   -0.1759
            -0.1756   -0.1750
 Net Total: -0.00000000


 Atom-Atom Population Matrix (off-diagonal elements not doubled)
 ===============================================================

     1 :     4.5232
     2 :     0.5419    4.5221
     3 :    -0.0108    0.5415    4.5222
     4 :    -0.0557   -0.0107    0.5419    4.5232
     5 :    -0.0107   -0.0556   -0.0104    0.5419    4.5221
     6 :     0.5419   -0.0104   -0.0555   -0.0108    0.5415    4.5222
     7 :    -0.0535    0.3939   -0.0535    0.0022    0.0041    0.0021    0.9822
     8 :     0.0022   -0.0535    0.3939   -0.0536    0.0021    0.0041   -0.0478    0.9819
     9 :     0.0041    0.0022   -0.0535    0.3939   -0.0535    0.0022   -0.0038   -0.0475    0.9807
    10 :     0.0022    0.0041    0.0021   -0.0535    0.3939   -0.0535    0.0015   -0.0039   -0.0475    0.9822
    11 :    -0.0536    0.0021    0.0041    0.0022   -0.0535    0.3939   -0.0039    0.0016   -0.0038   -0.0478
             0.9818
    12 :     0.3939   -0.0535    0.0022    0.0041    0.0022   -0.0535   -0.0475   -0.0038    0.0016   -0.0038
            -0.0475    0.9806



 =================================================
 H I R S H F E L D   C H A R G E   A N A L Y S I S
 =================================================
  
 For each fragment: the (numerical) integral of rho(scf) * rho(fragment)/rho(sum-of-fragments)
 (nuclear charges are included, electrons are counted negative)

 The fragments and their ordering are defined in the early G E O M E T R Y output section.
 If you use single-atom fragments, this usually implies that all atoms of the same
 chemical type are grouped together. This may not be the order in which you listed them
 in the input file!

    1  C                        -0.0462
    2  C                        -0.0464
    3  C                        -0.0463
    4  C                        -0.0462
    5  C                        -0.0464
    6  C                        -0.0463
    7  H                         0.0464
    8  H                         0.0463
    9  H                         0.0462
   10  H                         0.0464
   11  H                         0.0463
   12  H                         0.0462

 Sum of these charges (accuracy NumInt/Tails) =          -0.00005968



 =============================
 V O R O N O I   C H A R G E S
 =============================
  
 For each atom: the (numerical) integral of the total electronic charge density in its Voronoi cell,
 i.e. the region of space that is closer to that atom than to any other atom.
 (cf. Wigner-Seitz cells in crystals)

 Within the Voronoi cell the subintegrals over the atomic sphere and the remaining part are evaluated
 separately to give the numbers of electrons (negative charge) in these regions.
 The net total charge in the cell (including the nuclear charge) is also given.

 Values are provided for
    a) the Initial (sum-of-fragments) density
    b) the Orthogonalized-Fragments density
    c) the SCF density
    d) the Voronoi Deformation Density (VDD): the difference SCF-Initial for the complete atomic cell


  Atom                Initial                    OrthFrag                   SCF
             Sphere RestCell NetTotal   Sphere RestCell NetTotal   Sphere RestCell NetTotal      VDD
 -----       ------------------------   ------------------------   ------------------------    -----
    1 C      -2.268   -3.185    0.547   -2.452   -3.137    0.411   -2.303   -3.206    0.491   -0.056
    2 C      -2.269   -3.192    0.540   -2.452   -3.138    0.410   -2.303   -3.208    0.489   -0.051
    3 C      -2.269   -3.190    0.542   -2.452   -3.142    0.406   -2.303   -3.212    0.485   -0.056
    4 C      -2.268   -3.185    0.547   -2.452   -3.137    0.411   -2.303   -3.206    0.491   -0.056
    5 C      -2.269   -3.192    0.540   -2.452   -3.138    0.410   -2.303   -3.208    0.489   -0.051
    6 C      -2.269   -3.190    0.542   -2.452   -3.142    0.406   -2.303   -3.212    0.485   -0.056
    7 H      -0.075   -1.473   -0.547   -0.096   -1.317   -0.413   -0.109   -1.384   -0.492    0.055
    8 H      -0.075   -1.465   -0.539   -0.096   -1.309   -0.405   -0.109   -1.375   -0.484    0.055
    9 H      -0.075   -1.467   -0.542   -0.096   -1.313   -0.409   -0.109   -1.379   -0.488    0.053
   10 H      -0.075   -1.473   -0.547   -0.096   -1.317   -0.413   -0.109   -1.384   -0.492    0.055
   11 H      -0.075   -1.465   -0.539   -0.096   -1.310   -0.405   -0.109   -1.375   -0.484    0.055
   12 H      -0.075   -1.467   -0.542   -0.096   -1.313   -0.409   -0.109   -1.379   -0.488    0.053
 ---------------------------------------------------------------------------------------------------
 Total NetCharge:              -0.000                     -0.000                     -0.000    0.000
 (accuracy NumInt/Tails)

 Remark: the 'NetTotal' Voronoi charges often do not match the Mulliken and/or Hirshfeld charges very
 well. This is caused by the fact that chemically different atoms are not treated in accordance with
 their relative sizes. (Voronoi cells are defined by boundary planes halfway between the atoms.)
 However, the CHANGES in charge, comparing 'Initial' to 'SCF' for instance, do give a fair indication
 of the flow of charge caused by the relaxation from sum-of-fragments to self-consistency.

 Warning: the absolute accuracy of the VDD charges obtained using the Fuzzy Cells (Becke) integration
 scheme is much poorer than the one obtained with an 'equivalent' Voronoi integration grid. 



 =================================================================
 M U L T I P O L E   D E R I V E D   C H A R G E   A N A L Y S I S
 =================================================================

 This charge analysis uses the atomic multipoles (obtained from the fitted density) up to some level X,
 and reconstructs these multipoles exactly (up to level X) by distributing charges over all atoms.
 This is achieved by using Lagrange multipliers and a weight function to keep the multipoles local.

 Dummy atoms can be included (by setting INCDUM in MDC-block to 1) to obtain a fractional charge.
 This is generally useful and necessary only for small symmetrical molecules, when there are not
 enough degrees of freedom to reconstruct the multipoles.

 Since the atomic multipoles are reconstructed up to level X,
 the molecular multipoles are represented also up to level X.
 The recommended level is to reconstruct up to quadrupole : -> MDC-q charges.

 See: M. Swart, P.Th. van Duijnen, J.G. Snijders, J.Comput.Chem., (2001), p. 79-88.

 ------------------------------------------------------------- 
 Atomic electronic multipole moments from SCF equations (a.u.)
 ------------------------------------------------------------- 

   atom        charge        dip-x     dip-y     dip-z      quad-xx   quad-xy   quad-xz   quad-yy   quad-yz   quad-zz
 --------------------------------------------------------------------------------------------------------------------
    1 C      0.060878     0.001008  0.000000 -0.047007     0.468385  0.000000 -0.000795 -0.996562 -0.000000  0.528177
    2 C      0.060447    -0.042489  0.000000 -0.025020     0.510001  0.000000  0.014298 -0.993862 -0.000000  0.483860
    3 C      0.060585    -0.042853  0.000000  0.022832     0.513428 -0.000000 -0.014344 -0.994910 -0.000000  0.481482
    4 C      0.060878    -0.001024  0.000000  0.047009     0.468398 -0.000000 -0.000825 -0.996566 -0.000000  0.528168
    5 C      0.060447     0.042484 -0.000000  0.025028     0.509987  0.000000  0.014311 -0.993860 -0.000000  0.483873
    6 C      0.060576     0.042824  0.000000 -0.022812     0.513435  0.000000 -0.014327 -0.994908 -0.000000  0.481473
    7 H     -0.060616    -0.019666  0.000000 -0.011480     0.160858  0.000000  0.080272 -0.195394  0.000000  0.034537
    8 H     -0.060609    -0.020018 -0.000000  0.010584     0.171156 -0.000000 -0.076354 -0.195696 -0.000000  0.024539
    9 H     -0.060686    -0.000509 -0.000000  0.022648    -0.038716  0.000000 -0.003892 -0.194864 -0.000000  0.233581
   10 H     -0.060616     0.019663 -0.000000  0.011486     0.160849 -0.000000  0.080277 -0.195393 -0.000000  0.034544
   11 H     -0.060598     0.020036  0.000000 -0.010589     0.171158  0.000000 -0.076350 -0.195691 -0.000000  0.024533
   12 H     -0.060686     0.000498  0.000000 -0.022649    -0.038721 -0.000000 -0.003880 -0.194862  0.000000  0.233584

 --------------------------------------- 
 Multipole derived atomic charges (a.u.)
 --------------------------------------- 

 The MDC-m charges are just the Monopole terms in the multipole expansion, while for the MDC-d charges
 also the Dipoles are reconstructed. The usually preferred charges are the MDC-q charges.
 These reconstruct the Monopoles, Dipoles and Quadrupoles (both atomic AND molecular).

        Atom    Level:     MDC-m        MDC-d        MDC-q
 ---------------------------------------------------------
     1     C            0.060878     0.034686    -0.125776
     2     C            0.060447     0.034613    -0.128148
     3     C            0.060585     0.034778    -0.127952
     4     C            0.060878     0.034687    -0.125773
     5     C            0.060447     0.034612    -0.128154
     6     C            0.060576     0.034766    -0.127925
     7     H           -0.060616    -0.034296     0.127798
     8     H           -0.060609    -0.034564     0.127559
     9     H           -0.060686    -0.035211     0.126515
    10     H           -0.060616    -0.034297     0.127798
    11     H           -0.060598    -0.034561     0.127542
    12     H           -0.060686    -0.035213     0.126515

 ------------------------------------------------ 
 Average absolute deviations in atomic multipoles
 ------------------------------------------------ 

 Stated here are the average differences between the atomic multipoles
 and the reconstructed atomic multipoles (from the distributed charges).
 If these values are not zero, this means there are not enough degrees of freedom,
 to be able to reconstruct the atomic multipoles. (This usually happens only
 for small and/or highly symmetric molecules). If this is the case, one could add
 dummy atoms as extra point charges (and setting INCDUM in MDC-block to 1).

 Level:                                 MDC-d        MDC-q
 ---------------------------------------------------------
 Charge   (a.u.)                       0.0000       0.0000
 Dipole   (Debye)                      0.0000       0.0000
 Quad.    (a.u.)                       0.2134       0.0000

 --------------------------------------- 
 Represented molecular multipole moments
 --------------------------------------- 

 Given here are the Molecular multipole moments from the atomic charges, and from the Fit Density.
 Note that the atomic charges represent the latter, NOT the ones from the Exact density.

            Q (a.u.)             Dipole moment (Debye)                                          Quadrupole moment (a.u.)
                                 x         y         z              xx        xy        xz        yy        yz        zz
------------------------------------------------------------------------------------------------------------------------
MDC-m        -0.0000        0.0001   -0.0000   -0.0000         -1.3861    0.0003   -0.0015    2.7586   -0.0002   -1.3725
MDC-d        -0.0000       -0.0001   -0.0000    0.0000         -0.7665   -0.0003    0.0074    1.5782    0.0002   -0.8117
MDC-q        -0.0000       -0.0001   -0.0000    0.0000          2.9217   -0.0003    0.0055   -5.7910    0.0002    2.8693
 
Fit.Dens.    -0.0000       -0.0001    0.0000    0.0000          2.9217   -0.0003    0.0047   -5.7910    0.0002    2.8693



 =============
 Dipole Moment  ***  (Debye)  ***
 =============
  
 Vector   :        -0.00006087      0.00000004      0.00003558
 Magnitude:         0.00007050

 This molecular dipole moment is calculated with analytic integration



 =========================================
 Quadrupole Moment (Buckingham convention)  ***  (a.u.)  ***
 =========================================
  
      quad-xx        quad-xy        quad-xz        quad-yy        quad-yz        quad-zz
      2.93320374    -0.00027152     0.00288931    -5.81937999     0.00015859     2.88617624

 This molecular quadrupole moment is calculated with analytic integration
1



 =======================================================
 S F O   P O P U L A T I O N S ,   M O   A N A L Y S I S
 =======================================================
  
 A Mulliken population analysis is performed on (input-)selected MOs. All populations refer to SFOs.
 BAS populations may have been printed directly after the SCF part.


                                       === A ===


 SFO contributions (%) per orbital
 (multiplication by the orbital occupation yields the SFO Gross Populations)

 Orb.:       12     13     14     15     16     17     18     19     20     21     22     23     24     25
 occup:     2.00   2.00   2.00   2.00   2.00   2.00   2.00   2.00   2.00   2.00   0.00   0.00   0.00   0.00
 CF+SFO     ----   ----   ----   ----   ----   ----   ----   ----   ----   ----   ----   ----   ----   ----
 ------
      2:    0.25   4.03   0.00   0.00   0.03   0.00  -0.00  -0.06   0.00  -0.00   0.00   0.00  -0.25   0.00
      3:   -0.08   0.11   0.00  -0.00  -0.18  -0.00  -0.00  -0.02   0.00  -0.00  -0.00  -0.00  -2.68  -0.00
      6:    0.01   0.00  14.51   0.38  -0.00  -0.00   9.16   0.02  -0.00   0.00  -0.00   0.00   0.00  -2.05
      7:    0.00   0.00   2.02   0.64  -0.00  -0.00   3.04   0.01   0.00  -0.00  -0.00  -0.00  -0.00  -9.50
      9:    0.00   0.00   0.00   0.00   0.00  17.21  -0.00  -0.00   0.00  31.77  34.50   0.01   0.00   0.00
     10:   -0.00  -0.00   0.00  -0.00   0.00  -0.98  -0.00  -0.00   0.00   0.12  -3.85  -0.00  -0.00   0.00
     12:   10.72   2.58   0.01   0.10  17.68  -0.00   0.02   5.85  -0.00   0.00   0.00   0.00   0.73   0.01
     13:    0.23   0.28   0.00   0.00   1.26   0.00   0.01   1.45   0.00   0.00  -0.00  -0.00  -0.50  -0.04
     17:    0.00  -0.00   0.00  -0.00  -0.00   0.00   0.00  -0.00   0.61   0.00   0.00   1.14   0.00   0.00
     21:    0.23   4.03   0.00   0.03   0.01   0.00  -0.05  -0.01   0.00   0.00  -0.00   0.00  -0.24   0.03
     22:   -0.08   0.11  -0.00  -0.15  -0.03   0.00  -0.02  -0.00  -0.00   0.00   0.00   0.00  -2.69  -0.41
     25:    7.79   1.94   3.97   9.39   3.58  -0.00   6.74  -0.00  -0.00  -0.00  -0.00   0.00   0.53  -0.36
     26:    0.17   0.21   0.55   0.14   0.95  -0.00   2.13  -0.23  -0.00   0.00  -0.00   0.00  -0.37 -10.77
     28:   -0.00   0.00  -0.00   0.00   0.00  17.22   0.00   0.00  24.15   7.61   8.26  26.23  -0.00  -0.00
     29:    0.00   0.00  -0.00   0.00  -0.00  -0.98   0.00   0.00   0.09   0.03  -0.92  -2.93   0.00  -0.00
     31:    2.89   0.71  10.47   5.17   0.00  -0.00  -0.14   8.43  -0.00  -0.00  -0.00   0.00   0.20   0.20
     32:    0.06   0.07   1.44   1.02  -0.17   0.00  -0.30   2.93  -0.00   0.00  -0.00   0.00  -0.14   0.17
     40:    0.24   4.03   0.00   0.02   0.01   0.00  -0.05  -0.02  -0.00   0.00  -0.00  -0.00  -0.24   0.03
     41:   -0.08   0.11  -0.00  -0.12  -0.06  -0.00  -0.02  -0.01   0.00   0.00   0.00  -0.00  -2.70  -0.50
     44:    8.19   2.02   3.43   7.91   5.72   0.00   6.76  -0.14  -0.00   0.00  -0.00  -0.00   0.55  -0.06
     45:    0.18   0.22   0.47  -0.03   1.14  -0.00   2.14  -0.30   0.00   0.00  -0.00  -0.00  -0.39 -10.86
     47:    0.00  -0.00  -0.00   0.00   0.00  17.22  -0.00  -0.00  23.49   8.27   8.98  25.51   0.00  -0.00
     48:   -0.00   0.00   0.00  -0.00   0.00  -0.98  -0.00  -0.00   0.09   0.03  -1.00  -2.85   0.00   0.00
     50:    2.50   0.61  11.01   4.29   0.26   0.00  -0.00   8.41  -0.00   0.00  -0.00  -0.00   0.17   0.28
     51:    0.05   0.06   1.51   1.11  -0.29  -0.00  -0.23   2.92  -0.00   0.00  -0.00  -0.00  -0.12   0.06
     59:    0.25   4.03   0.00   0.00   0.03  -0.00  -0.00  -0.06  -0.00   0.00  -0.00   0.00  -0.25   0.00
     60:   -0.08   0.11   0.00  -0.00  -0.18   0.00  -0.00  -0.02  -0.00   0.00  -0.00   0.00  -2.68  -0.00
     63:    0.01   0.00  14.51   0.38  -0.00   0.00   9.16   0.02  -0.00  -0.00  -0.00   0.00   0.00  -2.05
     64:    0.00   0.00   2.02   0.64  -0.00  -0.00   3.04   0.01   0.00   0.00  -0.00  -0.00  -0.00  -9.50
     66:    0.00   0.00  -0.00   0.00   0.00  17.21   0.00   0.00   0.00  31.77  34.50   0.01   0.00  -0.00
     67:    0.00  -0.00  -0.00  -0.00  -0.00  -0.98   0.00   0.00   0.00   0.12  -3.85  -0.00   0.00   0.00
     69:   10.72   2.58   0.01   0.10  17.68  -0.00   0.02   5.85   0.00   0.00  -0.00   0.00   0.73   0.01
     70:    0.23   0.28   0.00   0.00   1.26   0.00   0.01   1.45  -0.00  -0.00   0.00  -0.00  -0.50  -0.04
     74:   -0.00   0.00   0.00  -0.00   0.00   0.00   0.00  -0.00   0.61   0.00   0.00   1.14  -0.00   0.00
     78:    0.23   4.03   0.00   0.03   0.01   0.00  -0.05  -0.01   0.00   0.00   0.00   0.00  -0.24   0.03
     79:   -0.08   0.11  -0.00  -0.15  -0.03   0.00  -0.02  -0.00  -0.00   0.00  -0.00   0.00  -2.69  -0.41
     82:    7.80   1.94   3.97   9.39   3.58  -0.00   6.74  -0.00   0.00   0.00   0.00   0.00   0.53  -0.36
     83:    0.17   0.21   0.55   0.14   0.95  -0.00   2.13  -0.23  -0.00   0.00   0.00   0.00  -0.37 -10.77
     85:    0.00   0.00   0.00   0.00   0.00  17.22  -0.00  -0.00  24.15   7.61   8.26  26.24   0.00   0.00
     86:    0.00   0.00  -0.00  -0.00  -0.00  -0.98   0.00  -0.00   0.09   0.03  -0.92  -2.93  -0.00  -0.00
     88:    2.89   0.71  10.47   5.17   0.01   0.00  -0.14   8.43   0.00   0.00   0.00  -0.00   0.20   0.20
     89:    0.06   0.07   1.44   1.02  -0.17  -0.00  -0.30   2.93  -0.00  -0.00   0.00   0.00  -0.14   0.17
     97:    0.24   4.03   0.00   0.02   0.01   0.00  -0.05  -0.02  -0.00  -0.00   0.00   0.00  -0.24   0.03
     98:   -0.08   0.11  -0.00  -0.12  -0.06   0.00  -0.02  -0.01  -0.00  -0.00  -0.00  -0.00  -2.70  -0.50
    101:    8.18   2.02   3.43   7.91   5.72   0.00   6.76  -0.14   0.00   0.00  -0.00   0.00   0.56  -0.06
    102:    0.18   0.22   0.47  -0.03   1.14  -0.00   2.14  -0.30  -0.00   0.00  -0.00   0.00  -0.39 -10.87
    104:    0.00  -0.00   0.00   0.00   0.00  17.22  -0.00   0.00  23.49   8.27   8.98  25.51   0.00   0.00
    105:    0.00   0.00   0.00  -0.00   0.00  -0.98   0.00   0.00   0.09   0.03  -1.00  -2.85  -0.00  -0.00
    107:    2.50   0.61  11.01   4.29   0.26   0.00  -0.00   8.41  -0.00   0.00   0.00  -0.00   0.17   0.28
    108:    0.05   0.06   1.51   1.11  -0.29  -0.00  -0.23   2.92   0.00   0.00   0.00   0.00  -0.12   0.06
    115:    5.52   9.20   0.00  10.56   2.36   0.00  10.34   3.02   0.00   0.00   0.00   0.00   7.81  14.93
    116:   -0.02   0.16   0.00   0.13   0.03  -0.00  -0.15  -0.04  -0.00   0.00   0.00   0.00  11.29  22.17
    119:    0.00  -0.00   0.00   0.00   0.00   0.25   0.00  -0.00   0.63   0.20   0.33   1.04   0.00   0.00
    121:    5.52   9.17   0.00   8.81   4.15  -0.00   9.69   3.67   0.00  -0.00   0.00   0.00   7.82  17.93
    122:   -0.02   0.16   0.00   0.11   0.05   0.00  -0.14  -0.05  -0.00   0.00   0.00  -0.00  11.30  26.63
    125:   -0.00   0.00   0.00   0.00   0.00   0.25  -0.00   0.00   0.62   0.22   0.36   1.01  -0.00  -0.00
    127:    5.56   9.10   0.00   0.09  12.93   0.00   0.01  13.34  -0.00  -0.00  -0.00   0.00   7.78   0.14
    128:   -0.02   0.16  -0.00   0.00   0.16  -0.00  -0.00  -0.19   0.00   0.00  -0.00   0.00  11.24   0.21
    131:    0.00  -0.00   0.00  -0.00   0.00   0.25  -0.00  -0.00   0.00   0.83   1.37   0.00   0.00  -0.00
    133:    5.52   9.20   0.00  10.56   2.36   0.00  10.34   3.02  -0.00  -0.00   0.00   0.00   7.81  14.92
    134:   -0.02   0.16   0.00   0.13   0.03   0.00  -0.15  -0.04   0.00   0.00   0.00   0.00  11.29  22.16
    137:   -0.00  -0.00   0.00   0.00  -0.00   0.25  -0.00   0.00   0.63   0.20   0.33   1.04   0.00   0.00
    139:    5.52   9.17   0.00   8.81   4.15  -0.00   9.70   3.67   0.00  -0.00   0.00   0.00   7.83  17.93
    140:   -0.02   0.16   0.00   0.11   0.05   0.00  -0.14  -0.05  -0.00  -0.00  -0.00   0.00  11.31  26.63
    143:   -0.00  -0.00   0.00  -0.00  -0.00   0.25   0.00  -0.00   0.62   0.22   0.36   1.01   0.00  -0.00
    145:    5.56   9.09   0.00   0.08  12.93   0.00   0.01  13.34   0.00  -0.00   0.00   0.00   7.78   0.14
    146:   -0.02   0.16  -0.00   0.00   0.16  -0.00  -0.00  -0.19   0.00  -0.00   0.00   0.00  11.24   0.21
    149:    0.00   0.00  -0.00   0.00   0.00   0.25   0.00   0.00   0.00   0.83   1.37   0.00  -0.00  -0.00


 Summation over all MOs, multiplied by occupation: Total SFO Gross Populations in this Irrep
 ===========================================================================================

     2.00    1.07   -0.01   -0.00   -0.00    0.84    0.07   -0.01    0.98   -0.02   -0.00    0.81
     0.03   -0.01    0.02    0.01    0.01    0.02    0.00    2.00    1.07   -0.01   -0.00   -0.00
     0.82    0.04   -0.01    0.98   -0.02   -0.00    0.83    0.06   -0.01    0.02    0.01    0.01
     0.02    0.01    2.00    1.07   -0.01   -0.00   -0.00    0.82    0.04   -0.01    0.98   -0.02
    -0.00    0.83    0.06   -0.01    0.02    0.01    0.01    0.02    0.01    2.00    1.07   -0.01
    -0.00   -0.00    0.84    0.07   -0.01    0.98   -0.02   -0.00    0.81    0.03   -0.01    0.02
     0.01    0.01    0.02    0.00    2.00    1.07   -0.01   -0.00   -0.00    0.82    0.04   -0.01
     0.98   -0.02   -0.00    0.83    0.06   -0.01    0.02    0.01    0.01    0.02    0.01    2.00
     1.07   -0.01   -0.00   -0.00    0.82    0.04   -0.01    0.98   -0.02   -0.00    0.83    0.06
    -0.01    0.02    0.01    0.01    0.02    0.01    1.11   -0.00   -0.00    0.03    0.02    0.02
     1.11   -0.00   -0.00    0.03    0.02    0.02    1.11   -0.00   -0.00    0.02    0.02    0.03
     1.11   -0.00   -0.00    0.03    0.02    0.02    1.11   -0.00   -0.00    0.03    0.02    0.02
     1.11   -0.00   -0.00    0.02    0.02    0.03



 List of all MOs, ordered by energy, with the most significant SFO gross populations
 ===================================================================================

 Each percentage contribution in the table below corresponds to the indicated SFO.
 In general, a SFO may be a linear combination of several Fragment Orbitals on the same,
 or on symmetry-related Fragments. Only the first 'member' of such a combination is
 specified here. A full definition of all SFOs is given in an earlier part of the output.
 The numbering of the SFOs in this table does NOT include the Core Orbitals, and starts
 from one for each symmetry representation, as in the SFO definition list earlier.

       E(eV)  Occ       MO           %     SFO (first member)   E(eV)  Occ   Fragment
 -------------------------------------------------------------------------------------

     -21.394  2.00     7 A         14.60%     2 S             -13.876  2.00     2 C
                                   14.60%     2 S             -13.876  2.00     5 C
                                   14.60%     2 S             -13.876  2.00     3 C
                                   14.60%     2 S             -13.876  2.00     6 C
                                   14.59%     2 S             -13.876  2.00     4 C
                                   14.59%     2 S             -13.876  2.00     1 C
                                    2.38%     1 P:z            -5.403  0.67     4 C
                                    2.38%     1 P:z            -5.403  0.67     1 C
                                    1.82%     1 P:x            -5.403  0.67     6 C
                                    1.82%     1 P:x            -5.403  0.67     3 C
                                    1.73%     1 P:x            -5.403  0.67     5 C
                                    1.73%     1 P:x            -5.403  0.67     2 C
                                    1.24%     1 S              -6.626  1.00     7 H
                                    1.24%     1 S              -6.626  1.00    10 H
                                    1.24%     1 S              -6.626  1.00     8 H
                                    1.24%     1 S              -6.626  1.00    11 H
                                    1.23%     1 S              -6.626  1.00     9 H
                                    1.23%     1 S              -6.626  1.00    12 H
     -18.626  2.00     8 A         18.23%     2 S             -13.876  2.00     5 C
                                   18.22%     2 S             -13.876  2.00     2 C
                                   16.31%     2 S             -13.876  2.00     6 C
                                   16.31%     2 S             -13.876  2.00     3 C
                                    5.71%     1 P:x            -5.403  0.67     4 C
                                    5.71%     1 P:x            -5.403  0.67     1 C
                                    4.49%     1 S              -6.626  1.00    10 H
                                    4.49%     1 S              -6.626  1.00     7 H
                                    4.02%     1 S              -6.626  1.00     8 H
                                    4.02%     1 S              -6.626  1.00    11 H
                                   -1.69%     2 P:x             4.709  0.00     4 C
                                   -1.69%     2 P:x             4.709  0.00     1 C
                                    1.67%     1 P:z            -5.403  0.67     6 C
                                    1.67%     1 P:z            -5.403  0.67     3 C
                                    1.23%     1 P:z            -5.403  0.67     2 C
                                    1.23%     1 P:z            -5.403  0.67     5 C
     -18.616  2.00     9 A         23.01%     2 S             -13.876  2.00     1 C
                                   23.01%     2 S             -13.876  2.00     4 C
                                    6.75%     2 S             -13.876  2.00     3 C
                                    6.75%     2 S             -13.876  2.00     6 C
                                    5.66%     1 S              -6.626  1.00    12 H
[...]
        2        delta  0.1611563487895E+05
 CRIT   67.9737880953350     
 iter.  3 V(1) measure  0.8867702704901E+05
        3        delta  0.8937642314533E+03
 CRIT   97.1216753898996     
 iter.  4 V(1) measure  0.8930364231496E+05
        4        delta  0.6266152659450E+03
 CRIT   11.2279487243679     
 iter.  5 V(1) measure  0.8940753965952E+05
        5        delta  0.1038973445629E+03
 CRIT   2.20835857574422     
 iter.  6 V(1) measure  0.8941992327328E+05
        6        delta  0.1238361376128E+02
 CRIT   1.28258098713634     
 iter.  7 V(1) measure  0.8941220890626E+05
        7        delta  0.7714367017878E+01
 CRIT  0.162458820633356     
 iter.  8 V(1) measure  0.8941120667613E+05
        8        delta  0.1002230130704E+01
 CRIT  4.496200272345042E-002
 iter.  9 V(1) measure  0.8941099188811E+05
        9        delta  0.2147880188859E+00
 CRIT  5.184034449422706E-002
 iter. 10 V(1) measure  0.8941078112191E+05
       10        delta  0.2107662044873E+00
 CRIT  8.018636104791806E-003
 iter. 11 V(1) measure  0.8941079690451E+05
       11        delta  0.1578260216047E-01
 *** convergence reached

    RRIJmat_z_z         
    using first order VWN potential
 
    NOTE: We will NOT use the GGA kernel (input option ALDA was set)
 
 CRIT   1.00000000000000     
 iter.  1 V(1) measure  0.1302829952766E+04
 *** convergence criterion : .1302830E-02
 CRIT   143.985001592987     
 iter.  2 V(1) measure  0.1073762511108E+04
        2        delta  0.2290674416579E+03
 CRIT   54.6827560133765     
 iter.  3 V(1) measure  0.1109419070667E+04
        3        delta  0.3565655955832E+02
 CRIT   15.1274677718102     
 iter.  4 V(1) measure  0.1114995518178E+04
        4        delta  0.5576447511405E+01
 CRIT   3.45926351030717     
 iter.  5 V(1) measure  0.1115893213034E+04
        5        delta  0.8976948557981E+00
 CRIT   1.49077275946089     
 iter.  6 V(1) measure  0.1115993858123E+04
        6        delta  0.1006450895932E+00
 CRIT  0.190017064836995     
 iter.  7 V(1) measure  0.1115993224286E+04
        7        delta  0.6338373693779E-03
 *** convergence reached
 ------------------------------------------
 Convergence acceleration: T
 QUADRUPOLE-QUADRUPOLE POLARIZABILITY     
 Frequency  =  0.1322975682     Hartrees
 Wavelength =   344.4005294     nm
 Wavenumber =   29035.96001     cm^{-1}
 Energy     =   3.600000000     eV
 ------------------------------------------
 QUADRUPOLE-QUADRUPOLE Polarizability tensor:
 
 xx xx     4191.52954670145     
 xx xy    6.806878425209451E-002
 xx xz    8.810860903944520E-004
 xx yy    -4992.71995093785     
 xx yz    7.828259472264198E-002
 xx zz     801.190404236414     
 xy xx    0.110867932279262     
 xy xy     12594.9565360490     
 xy xz   -0.114605172269589     
 xy yy   -4.050867793660259E-002
 xy yz   -0.628548057857472     
 xy zz   -7.035925440395090E-002
 xz xx    8.927430793244581E-004
 xz xy   -0.114445114942186     
 xz xz     1692.03699891291     
 xz yy    0.134066148817867     
 xz yz    4.631376952975334E-002
 xz zz   -0.134958891904021     
 yy xx    -4992.82854093556     
 yy xy    0.425467275715844     
 yy xz    0.116026365561966     
 yy yy     9983.77268993784     
 yy yz   -0.245398946231221     
 yy zz    -4990.94414900223     
 yz xx   -5.388193461424606E-002
 yz xy   -0.671356399583116     
 yz xz    4.635396033027286E-002
 yz yy    2.426363472544768E-002
 yz yz     12587.4895721006     
 yz zz    2.961829986365050E-002
 zz xx     801.199328258386     
 zz xy   -0.201022928282108     
 zz xz   -0.128891419697301     
 zz yy    -4991.03575984164     
 zz yz   -8.668537093884598E-003
 zz zz     4189.83643158326     
 
 Imaginary QUADRUPOLE-QUADRUPOLE Polarizability tensor:
 
 xx xx     18.6664295588879     
 xx xy   -1.459968372781057E-002
 xx xz   -3.534302651213418E-004
 xx yy    -21.5202189224383     
 xx yz    5.807214746006115E-002
 xx zz     2.85378936355046     
 xy xx    1.078116604691626E-003
 xy xy     124.999392319445     
 xy xz   -1.198917196144783E-003
 xy yy   -6.399559934519731E-004
 xy yz   -2.014610423985381E-003
 xy zz   -4.381606112591241E-004
 xz xx   -1.884182867741641E-004
 xz xy   -1.227492869327573E-003
 xz xz     7.91946737395649     
 xz yy    1.159465900900129E-003
 xz yz    3.659348103320981E-004
 xz zz   -9.710476141101450E-004
 yy xx    -21.5120816631474     
 yy xy    0.106351842090638     
 yy xz    4.154663383910175E-004
 yy yy     43.0080330711497     
 yy yz   -6.096201395923026E-002
 yy zz    -21.4959514080020     
 yz xx   -9.037707596181999E-004
 yz xy   -9.563469291393602E-003
 yz xz    3.693940554869388E-004
 yz yy    4.332111659304180E-004
 yz yz     124.935637578873     
 yz zz    4.705595936785548E-004
 zz xx     2.85066577315125     
 zz xy   -6.171691407479429E-002
 zz xz   -9.069327732807745E-004
 zz yy    -21.5168912161046     
 zz yz   -1.664179703419665E-002
 zz zz     18.6662254429535     



 =======================================================================
 Electrostatic potential at the Nuclei due to electrons and other nuclei
 =======================================================================
  
         Atom                  Potential
         ----                  ---------
     1)   C                  14.76879922
     2)   C                  14.76883815
     3)   C                  14.76880116
     4)   C                  14.76880021
     5)   C                  14.76883665
     6)   C                  14.76878820
     7)   H                   1.10109156
     8)   H                   1.10118505
     9)   H                   1.10158704
    10)   H                   1.10109171
    11)   H                   1.10117308
    12)   H                   1.10158745
 
 
 ========================
 No memory problems found
 ========================
 
 Maximum number of active allocate calls:        1279
 
 *******************************************************************************

                             A D F   E X I T
 NORMAL TERMINATION



 =================
 Timing Statistics
 =================
  
 Total Used :                     CPU=       29.79      System=        0.48     Elapsed=       30.92

 Calls  Section                     ( Mean, Percentage )
 ---------------------------------------------------------------------------------------------------
     3  ><      ................      0.00    0.02             0.00    0.00             0.00    0.01
     1  INIT    ................      0.57    1.91             0.00    0.64             0.62    1.99
     1  GEOMET  ................      0.04    0.12             0.01    2.49             0.06    0.18
     1  FRAGM   ................      0.02    0.07             0.02    3.42             0.04    0.13
     1  INPUTA  ................      0.00    0.01             0.00    0.00             0.00    0.01
     1  ATDEN   ................      0.01    0.02             0.00    0.00             0.01    0.02
     1  MAINSY  ................      0.03    0.11             0.00    0.75             0.04    0.13
     1  SYMFIT  ................      0.01    0.03             0.00    0.01             0.01    0.03
     1  CORORT  ................      0.00    0.00             0.00    0.02             0.00    0.00
     1  SYMORB  ................      0.00    0.02             0.00    0.01             0.00    0.02
     1  CLSMAT  ................      0.01    0.03             0.00    0.84             0.01    0.04
     1  ORTHON  ................      0.02    0.05             0.00    0.04             0.02    0.05
     1  GENPT   ................      0.12    0.39             0.01    1.70             0.14    0.44
     1  PTBAS   ................      0.09    0.29             0.01    1.10             0.10    0.32
    13  FOCKY   ................      0.30   13.19             0.00    6.12             0.32   13.51
    13  FOCKTR  ................      0.00    0.14             0.00    0.38             0.00    0.14
    13  SDIIS   ................      0.00    0.19             0.00    2.17             0.01    0.24
     1  COREPS  ................      0.24    0.81             0.00    0.00             0.24    0.79
     1  TOTEN   ................      1.06    3.56             0.03    5.88             1.14    3.69
     1  POPAN   ................      0.01    0.02             0.00    0.00             0.01    0.02
     1  DEBYE   ................      0.01    0.04             0.00    0.69             0.02    0.05
     1  INPUTE  ................      0.00    0.00             0.00    0.14             0.00    0.00
     1  SYMORE  ................      0.00    0.01             0.00    0.00             0.00    0.01
     1  METS    ................      0.00    0.01             0.00    0.00             0.00    0.00
     1  CETS    ................      0.01    0.02             0.00    0.83             0.01    0.04
     1  ELNRGY  ................      0.01    0.04             0.00    0.00             0.01    0.04
     1  POPUL   ................      0.01    0.05             0.00    0.00             0.01    0.05
     1  AORESPONSE .............     23.48   78.81             0.34   71.41            24.11   77.99
     1  EXIT PROCEDURE .........      0.01    0.04             0.01    1.34             0.02    0.06


 Currently Open Files (EXIT00)
 ====================

 Unit    Access Format  Status   Type       Ident (file)
 -------------------------------------------------------
   3      SEQ    FORM   TRANSP  NORMAL      LOGFILE
                                          ( logfile )

 ***************************************************************************************************
 (LOGFILE)
 <Sep29-2020> <15:16:53>  ADF 2019  RunTime: Sep29-2020 15:16:53  Nodes: 1  Procs: 1
 <Sep29-2020> <15:16:53>  Hydrogen (TZP)
 <Sep29-2020> <15:16:53>  RunType   : CREATE
 <Sep29-2020> <15:16:53>  Net Charge: 0 (Nuclei minus Electrons)
 <Sep29-2020> <15:16:53>  Symmetry  : ATOM
  Coordinates
    Atom         X           Y           Z   (Angstrom)
    1.H         0.000000    0.000000    0.000000
 <Sep29-2020> <15:16:53>  >>>> CORORT
 <Sep29-2020> <15:16:53>  >>>> CLSMAT
 <Sep29-2020> <15:16:53>  >>>> ORTHON
 <Sep29-2020> <15:16:53>  >>>> GENPT
 <Sep29-2020> <15:16:53>  Block Length=  64
 <Sep29-2020> <15:16:53>  >>>> PTBAS
 <Sep29-2020> <15:16:53>  >>>> CYCLE
 <Sep29-2020> <15:16:53>              |Error|         MaxErr       Wt(A-DIIS)
 <Sep29-2020> <15:16:53>      1      0.00000000      0.00000000
 <Sep29-2020> <15:16:53>      2      0.03052909      0.02968459
 <Sep29-2020> <15:16:53>      3      0.00718138      0.00670742    100.0
 <Sep29-2020> <15:16:53>      4      0.00117303      0.00114116      0.1
 <Sep29-2020> <15:16:53>      5      0.00002783      0.00002380      0.0
 <Sep29-2020> <15:16:53>      6      0.00000153      0.00000130      0.0
 <Sep29-2020> <15:16:53>      7      0.00000000      0.00000000      0.0
 <Sep29-2020> <15:16:53>  SCF converged
 <Sep29-2020> <15:16:53>      8      0.00000000      0.00000000      0.0
 <Sep29-2020> <15:16:53>  >>>> POPAN
 <Sep29-2020> <15:16:53>  >>>> DEBYE
 <Sep29-2020> <15:16:53>  NORMAL TERMINATION
 <Sep29-2020> <15:16:53>  END
 <Sep29-2020> <15:16:53>  ADF 2019  RunTime: Sep29-2020 15:16:53  Nodes: 1  Procs: 1
 <Sep29-2020> <15:16:53>  Carbon (TZP)
 <Sep29-2020> <15:16:53>  RunType   : CREATE
 <Sep29-2020> <15:16:54>  Net Charge: 0 (Nuclei minus Electrons)
 <Sep29-2020> <15:16:54>  Symmetry  : ATOM
  Coordinates
    Atom         X           Y           Z   (Angstrom)
    1.C         0.000000    0.000000    0.000000
 <Sep29-2020> <15:16:54>  >>>> CORORT
 <Sep29-2020> <15:16:54>  >>>> CLSMAT
 <Sep29-2020> <15:16:54>  >>>> ORTHON
 <Sep29-2020> <15:16:54>  >>>> GENPT
 <Sep29-2020> <15:16:54>  Block Length=  72
 <Sep29-2020> <15:16:54>  >>>> PTBAS
 <Sep29-2020> <15:16:54>  >>>> CYCLE
 <Sep29-2020> <15:16:54>              |Error|         MaxErr       Wt(A-DIIS)
 <Sep29-2020> <15:16:54>      1      0.00000000      0.00000000
 <Sep29-2020> <15:16:54>      2      4.48324754      3.31969244    100.0
 <Sep29-2020> <15:16:54>      3      1.61537707      1.30410194    100.0
 <Sep29-2020> <15:16:54>      4      0.72706284      0.59053131    100.0
 <Sep29-2020> <15:16:54>      5      0.40898688      0.33263800    100.0
 <Sep29-2020> <15:16:54>      6      0.13548919      0.10594416    100.0
 <Sep29-2020> <15:16:54>      7      0.11406432      0.09088019     90.8
 <Sep29-2020> <15:16:54>      8      0.01170325      0.00926551      8.3
 <Sep29-2020> <15:16:54>      9      0.00078015      0.00061791      0.0
 <Sep29-2020> <15:16:54>     10      0.00000178      0.00000107      0.0
 <Sep29-2020> <15:16:54>     11      0.00000024      0.00000019      0.0
 <Sep29-2020> <15:16:54>     12      0.00000000      0.00000000      0.0
 <Sep29-2020> <15:16:54>  SCF converged
 <Sep29-2020> <15:16:54>     13      0.00000000      0.00000000      0.0
 <Sep29-2020> <15:16:54>  >>>> POPAN
 <Sep29-2020> <15:16:54>  >>>> DEBYE
 <Sep29-2020> <15:16:54>  NORMAL TERMINATION
 <Sep29-2020> <15:16:54>  END
 <Sep29-2020> <15:16:55>  ADF 2019  RunTime: Sep29-2020 15:16:55  Nodes: 1  Procs: 6
 <Sep29-2020> <15:16:55>  None
 <Sep29-2020> <15:16:55>  RunType   : SINGLE POINT
 <Sep29-2020> <15:16:55>  Net Charge: 0 (Nuclei minus Electrons)
 <Sep29-2020> <15:16:55>  Symmetry  : NOSYM
 <Sep29-2020> <15:16:55>  >>>> FRAGM
  Coordinates
    Atom         X           Y           Z   (Angstrom)
    1.C         0.029711    4.000000   -1.398579
    2.C        -1.197159    4.000000   -0.725056
    3.C        -1.226843    4.000000    0.673457
    4.C        -0.029711    4.000000    1.398579
    5.C         1.197159    4.000000    0.725056
    6.C         1.226843    4.000000   -0.673462
    7.H        -2.131508    4.000000   -1.289203
    8.H        -2.184360    4.000000    1.197529
    9.H        -0.053074    4.000000    2.490079
   10.H         2.131487    4.000000    1.289234
   11.H         2.184449    4.000000   -1.197556
   12.H         0.053006    4.000000   -2.490079
 <Sep29-2020> <15:16:55>  >>>> CORORT
 <Sep29-2020> <15:16:55>  >>>> CLSMAT
 <Sep29-2020> <15:16:55>  >>>> ORTHON
 <Sep29-2020> <15:16:55>  >>>> GENPT
 <Sep29-2020> <15:16:55>  Block Length= 128
 <Sep29-2020> <15:16:55>  >>>> PTBAS
 <Sep29-2020> <15:16:56>  >>>> CYCLE
 <Sep29-2020> <15:16:56>              |Error|         MaxErr       Wt(A-DIIS)
 <Sep29-2020> <15:16:56>      1      5.99093353      0.98036199
 <Sep29-2020> <15:16:56>      2      0.89232884      0.18692470    100.0
 <Sep29-2020> <15:16:57>      3      0.52145572      0.10252848    100.0
 <Sep29-2020> <15:16:57>      4      0.74325581      0.17253165    100.0
 <Sep29-2020> <15:16:57>      5      0.07622458      0.01072461      9.8
 <Sep29-2020> <15:16:58>      6      0.01070781      0.00169665      0.7
 <Sep29-2020> <15:16:58>      7      0.00114469      0.00027533      0.0
 <Sep29-2020> <15:16:58>      8      0.00038483      0.00009370      0.0
 <Sep29-2020> <15:16:59>      9      0.00014562      0.00003664      0.0
 <Sep29-2020> <15:16:59>     10      0.00001054      0.00000245      0.0
 <Sep29-2020> <15:16:59>     11      0.00000719      0.00000174      0.0
 <Sep29-2020> <15:17:00>     12      0.00000013      0.00000002      0.0
 <Sep29-2020> <15:17:00>  SCF converged
 <Sep29-2020> <15:17:00>     13      0.00000005      0.00000001      0.0
 <Sep29-2020> <15:17:00>  >>>> TOTEN
 <Sep29-2020> <15:17:01>  >>>> POPAN
 <Sep29-2020> <15:17:01>  >>>> DEBYE
 <Sep29-2020> <15:17:01>  >>>> AMETS
 <Sep29-2020> <15:17:01>  >>>> POPUL
 <Sep29-2020> <15:17:02>     1 V(1)  0.1843558E+04
 <Sep29-2020> <15:17:02>     2 V(1)  0.1573829E+04
 <Sep29-2020> <15:17:03>     3 V(1)  0.1556539E+04
 <Sep29-2020> <15:17:03>     4 V(1)  0.1563065E+04
 <Sep29-2020> <15:17:04>     5 V(1)  0.1565025E+04
 <Sep29-2020> <15:17:04>     6 V(1)  0.1564868E+04
 <Sep29-2020> <15:17:04>     7 V(1)  0.1564849E+04
 <Sep29-2020> <15:17:05>     8 V(1)  0.1564843E+04
 <Sep29-2020> <15:17:05>     9 V(1)  0.1564839E+04
 <Sep29-2020> <15:17:06>    10 V(1)  0.1564839E+04
 <Sep29-2020> <15:17:06>   convergence reached
 <Sep29-2020> <15:17:06>     1 V(1)  0.2536226E+02
 <Sep29-2020> <15:17:06>     2 V(1)  0.2328897E+02
 <Sep29-2020> <15:17:07>     3 V(1)  0.2328363E+02
 <Sep29-2020> <15:17:07>     4 V(1)  0.2328288E+02
 <Sep29-2020> <15:17:08>     5 V(1)  0.2328276E+02
 <Sep29-2020> <15:17:08>     6 V(1)  0.2328279E+02
 <Sep29-2020> <15:17:09>     7 V(1)  0.2328280E+02
 <Sep29-2020> <15:17:09>   convergence reached
 <Sep29-2020> <15:17:09>     1 V(1)  0.1842273E+04
 <Sep29-2020> <15:17:10>     2 V(1)  0.1572673E+04
 <Sep29-2020> <15:17:10>     3 V(1)  0.1555400E+04
 <Sep29-2020> <15:17:10>     4 V(1)  0.1561961E+04
 <Sep29-2020> <15:17:11>     5 V(1)  0.1563639E+04
 <Sep29-2020> <15:17:11>     6 V(1)  0.1563878E+04
 <Sep29-2020> <15:17:11>     7 V(1)  0.1563759E+04
 <Sep29-2020> <15:17:11>     8 V(1)  0.1563742E+04
 <Sep29-2020> <15:17:12>     9 V(1)  0.1563739E+04
 <Sep29-2020> <15:17:12>    10 V(1)  0.1563736E+04
 <Sep29-2020> <15:17:12>    11 V(1)  0.1563736E+04
 <Sep29-2020> <15:17:12>   convergence reached
 <Sep29-2020> <15:17:12>     1 V(1)  0.1304472E+04
 <Sep29-2020> <15:17:13>     2 V(1)  0.1074961E+04
 <Sep29-2020> <15:17:13>     3 V(1)  0.1110615E+04
 <Sep29-2020> <15:17:13>     4 V(1)  0.1116190E+04
 <Sep29-2020> <15:17:13>     5 V(1)  0.1117088E+04
 <Sep29-2020> <15:17:14>     6 V(1)  0.1117188E+04
 <Sep29-2020> <15:17:14>     7 V(1)  0.1117188E+04
 <Sep29-2020> <15:17:14>   convergence reached
 <Sep29-2020> <15:17:14>     1 V(1)  0.1057596E+06
 <Sep29-2020> <15:17:14>     2 V(1)  0.8963731E+05
 <Sep29-2020> <15:17:15>     3 V(1)  0.8874235E+05
 <Sep29-2020> <15:17:15>     4 V(1)  0.8936683E+05
 <Sep29-2020> <15:17:15>     5 V(1)  0.8948592E+05
 <Sep29-2020> <15:17:16>     6 V(1)  0.8947577E+05
 <Sep29-2020> <15:17:16>     7 V(1)  0.8947464E+05
 <Sep29-2020> <15:17:16>     8 V(1)  0.8947408E+05
 <Sep29-2020> <15:17:16>     9 V(1)  0.8947389E+05
 <Sep29-2020> <15:17:17>    10 V(1)  0.8947389E+05
 <Sep29-2020> <15:17:17>   convergence reached
 <Sep29-2020> <15:17:17>     1 V(1)  0.6139957E+03
 <Sep29-2020> <15:17:17>     2 V(1)  0.4694577E+03
 <Sep29-2020> <15:17:17>     3 V(1)  0.4835041E+03
 <Sep29-2020> <15:17:18>     4 V(1)  0.4846771E+03
 <Sep29-2020> <15:17:18>     5 V(1)  0.4851992E+03
 <Sep29-2020> <15:17:18>     6 V(1)  0.4852066E+03
 <Sep29-2020> <15:17:18>     7 V(1)  0.4852084E+03
 <Sep29-2020> <15:17:19>     8 V(1)  0.4852072E+03
 <Sep29-2020> <15:17:19>     9 V(1)  0.4852062E+03
 <Sep29-2020> <15:17:19>    10 V(1)  0.4852060E+03
 <Sep29-2020> <15:17:19>   convergence reached
 <Sep29-2020> <15:17:19>     1 V(1)  0.2748732E+04
 <Sep29-2020> <15:17:20>     2 V(1)  0.2507393E+04
 <Sep29-2020> <15:17:20>     3 V(1)  0.2520129E+04
 <Sep29-2020> <15:17:20>     4 V(1)  0.2520554E+04
 <Sep29-2020> <15:17:20>     5 V(1)  0.2520553E+04
 <Sep29-2020> <15:17:20>   convergence reached
 <Sep29-2020> <15:17:21>     1 V(1)  0.1056864E+06
 <Sep29-2020> <15:17:21>     2 V(1)  0.8957079E+05
 <Sep29-2020> <15:17:21>     3 V(1)  0.8867703E+05
 <Sep29-2020> <15:17:22>     4 V(1)  0.8930364E+05
 <Sep29-2020> <15:17:22>     5 V(1)  0.8940754E+05
 <Sep29-2020> <15:17:22>     6 V(1)  0.8941992E+05
 <Sep29-2020> <15:17:22>     7 V(1)  0.8941221E+05
 <Sep29-2020> <15:17:23>     8 V(1)  0.8941121E+05
 <Sep29-2020> <15:17:23>     9 V(1)  0.8941099E+05
 <Sep29-2020> <15:17:23>    10 V(1)  0.8941078E+05
 <Sep29-2020> <15:17:23>    11 V(1)  0.8941080E+05
 <Sep29-2020> <15:17:23>   convergence reached
 <Sep29-2020> <15:17:24>     1 V(1)  0.1302830E+04
 <Sep29-2020> <15:17:24>     2 V(1)  0.1073763E+04
 <Sep29-2020> <15:17:24>     3 V(1)  0.1109419E+04
 <Sep29-2020> <15:17:25>     4 V(1)  0.1114996E+04
 <Sep29-2020> <15:17:25>     5 V(1)  0.1115893E+04
 <Sep29-2020> <15:17:25>     6 V(1)  0.1115994E+04
 <Sep29-2020> <15:17:25>     7 V(1)  0.1115993E+04
 <Sep29-2020> <15:17:25>   convergence reached
 <Sep29-2020> <15:17:25>  NORMAL TERMINATION
 <Sep29-2020> <15:17:25>  END
