

 Parallel Execution: Process Information
 ==============================================================================
 Rank   Node Name                              NodeID   MyNodeRank  NodeMaster
    0   magnesium.science.psu.edu                 0          0          0
    1   magnesium.science.psu.edu                 0          1         -1
    2   magnesium.science.psu.edu                 0          2         -1
    3   magnesium.science.psu.edu                 0          3         -1
    4   magnesium.science.psu.edu                 0          4         -1
    5   magnesium.science.psu.edu                 0          5         -1
 ==============================================================================


May use up to 7495MB of RAM as shared memory on node 0
 
TITLE None

ATOMS
1  C     0.02973175    4.00000000   -1.40006589
2  C    -1.19824892    4.00000000   -0.72605676
3  C    -1.22798596    4.00000000    0.67440384
4  C    -0.02973175    4.00000000    1.40006060
5  C     1.19825421    4.00000000    0.72605676
6  C     1.22797538    4.00000000   -0.67440384
7  H    -2.13144947    4.00000000   -1.29233614
8  H    -2.18449709    4.00000000    1.20056734
9  H    -0.05302646    4.00000000    2.49168761
10 H     2.13146534    4.00000000    1.29232026
11 H     2.18458651    4.00000000   -1.20056734
12 H     0.05294234    4.00000000   -2.49169290
END

XC
 gga BP86
end

symmetry nosym

aoresponse
 alda
 frequency 1 3.6 eV
 lifetime 0.0037
 El_Dipole_El_Dipole
 El_Dipole_El_Quadrupole
 El_Quadrupole_El_Quadrupole
 Traceless
end

Fragments
H t21.H
C t21.C
End

 *******************************************************************************
 *                                                                             *
 *  -------------------------------------                                      *
 *   Amsterdam Density Functional  (ADF)         2019                          *
 *  -------------------------------------                                      *
 *                                               r75281 2019-06-03             *
 *                                                                             *
 *                                                                             *
 *                              =================                              *
 *                              |               |                              *
 *                              |     A D F     |                              *
 *                              |               |                              *
 *                              =================                              *
 *                                                                             *
 *                                                                             *
 *   Online information and documentation:  https://www.scm.com/support/       *
 *   E-mail:  support@scm.com   info@scm.com                                   *
 *                                                                             *
 *   Scientific publications using ADF results must be properly referenced     *
 *   See the User Manuals (or the web site) for recommended citations          *
 *   The terms and conditions of the End User License Agreement apply to       *
 *   the use of ADF, https://www.scm.com/license-terms/                        *
 *                                                                             *
 **********************  x86_64_linux_intel / intelmpi  ************************
 
 Licensed to: Prof. Lasse Jensen / Penn State University / University Park / PA  / USA
 SCM User ID: u8493
  
 ADF 2019  RunTime: Sep29-2020 15:40:51  Nodes: 1  Procs: 6

 Temporary files are created in /scratch/kid_0.1211398655


Communication costs MPI_COMM_WORLD:      0.554 usec per message,   0.0072 usec per 8-byte item
Communication costs for intra-node:      0.584 usec per message,   0.0071 usec per 8-byte item

 None



 ===========================
 A T T A C H E D   F I L E S
 ===========================
  



 ===============================
 M O D E L   P A R A M E T E R S
 ===============================
  
 DENSITY FUNCTIONAL POTENTIAL (scf)
    LDA:                               VWN                                      
    Gradient Corrections:              Becke88 Perdew86                        == Not Default ==

 SPIN  (restricted / unrestr.)
    Molecule:                          Restricted                               
    Fragments:                         Restricted                               

 OTHER ASPECTS
    Relativistic Corrections:          ---                                      

    Nuclear Charge Density Model:      Point Charge Nuclei                      
    Core Treatment:                    Frozen Orbital(s)                        

    Hyperfine or Zeeman Interaction:   ---                                      


 Fragment File(s)
 ----------------
 C:
         file : t21.C
         jobid: ADF 2019  RunTime: Sep29-2020 15:40:50  Nodes: 1  Procs: 1
         title: Carbon (TZP)
 H:
         file : t21.H
         jobid: ADF 2019  RunTime: Sep29-2020 15:40:49  Nodes: 1  Procs: 1
         title: Hydrogen (TZP)



                                        ************************************
                                        *  R U N   T Y P E : SINGLE POINT  *
                                        ************************************
  



 ===============
 G E O M E T R Y  ***  Planar Molecule  ***
 ===============
  

 ATOMS
 =====                            X Y Z                    CHARGE
                                (Angstrom)             Nucl     +Core       At.Mass
                       --------------------------    ----------------       -------
    1  C               0.0297    4.0000   -1.4001      6.00      6.00       12.0000
    2  C              -1.1982    4.0000   -0.7261      6.00      6.00       12.0000
    3  C              -1.2280    4.0000    0.6744      6.00      6.00       12.0000
    4  C              -0.0297    4.0000    1.4001      6.00      6.00       12.0000
    5  C               1.1983    4.0000    0.7261      6.00      6.00       12.0000
    6  C               1.2280    4.0000   -0.6744      6.00      6.00       12.0000
    7  H              -2.1314    4.0000   -1.2923      1.00      1.00        1.0078
    8  H              -2.1845    4.0000    1.2006      1.00      1.00        1.0078
    9  H              -0.0530    4.0000    2.4917      1.00      1.00        1.0078
   10  H               2.1315    4.0000    1.2923      1.00      1.00        1.0078
   11  H               2.1846    4.0000   -1.2006      1.00      1.00        1.0078
   12  H               0.0529    4.0000   -2.4917      1.00      1.00        1.0078


 FRAGMENTS
 =========                                     Atoms in this Fragment     Cart. coord.s (Angstrom)
                                               -------------------------------------------------------
    1  C                                                 1  C            0.0297    4.0000   -1.4001
    2  C                                                 2  C           -1.1982    4.0000   -0.7261
    3  C                                                 3  C           -1.2280    4.0000    0.6744
    4  C                                                 4  C           -0.0297    4.0000    1.4001
    5  C                                                 5  C            1.1983    4.0000    0.7261
    6  C                                                 6  C            1.2280    4.0000   -0.6744
    7  H                                                 7  H           -2.1314    4.0000   -1.2923
    8  H                                                 8  H           -2.1845    4.0000    1.2006
    9  H                                                 9  H           -0.0530    4.0000    2.4917
   10  H                                                10  H            2.1315    4.0000    1.2923
   11  H                                                11  H            2.1846    4.0000   -1.2006
   12  H                                                12  H            0.0529    4.0000   -2.4917


 Interatomic Distance Matrix (Angstrom)
 --------------------------------------

   1)     0.000
   2)     1.401   0.000
   3)     2.426   1.401   0.000
   4)     2.801   2.426   1.401   0.000
   5)     2.426   2.802   2.427   1.401   0.000
   6)     1.401   2.427   2.802   2.426   1.401   0.000
   7)     2.164   1.092   2.164   3.416   3.894   3.416   0.000
   8)     3.416   2.164   1.092   2.164   3.416   3.894   2.493   0.000
   9)     3.893   3.415   2.164   1.092   2.164   3.415   4.317   2.492   0.000
  10)     3.416   3.894   3.416   2.164   1.092   2.164   4.985   4.317   2.492   0.000
  11)     2.164   3.416   3.894   3.416   2.164   1.092   4.317   4.985   4.317   2.493
          0.000
  12)     1.092   2.164   3.415   3.893   3.416   2.164   2.492   4.317   4.985   4.317
          2.492   0.000

 Min. Distance =    1.0916
 Max. Distance =    4.9854



 =====================================
 S Y M M E T R Y ,   E L E C T R O N S
 =====================================
  
 Symmetry: NOSYM

 Irreducible Representations, including subspecies
 -------------------------------------------------
 A


 Configuration of Valence Electrons
 ==================================
 ( determined in the SCF procedure )

 Total:   42

 Net Charge: 0 (Nuclei minus Electrons)

 Aufbau principle for MO occupations will be applied through SCF cycle no.     150
 Thereafter, the program will assign electrons to MOs that are spatially
 similar to the occupied MOs in a "reference" cycle ("KeepOrbitals").
 The reference cycle is always the PREVIOUS cycle: it will evolve with
 the SCF procedure.
1
 ***************************************************************************************************



                                      ****************************************
                                      *  B U I L D : (Fragments, Functions)  *
                                      ****************************************
  



 =======
 S F O s  ***  (Symmetrized Fragment Orbitals)  ***
 =======
  
 SFOs are linear combinations of (valence) Fragment Orbitals (FOs), such that the SFOs transform as the
 irreducible representations of the (molecular) symmetry group. Each SFO is therefore characterized by
 an irrep of the molecule and by a few (or only one) generating FOs.
 The SFOs constitute a symmetry-adapted basis for the Fock matrix. The MO eigenvector coefficients in
 this basis provide a direct interpretation of the MOs in terms of Frontier Orbital Theory.

 The SFOs are combined with auxiliary Core Functions (CFs) to ensure orthogonalization on the (frozen)
 Core Orbitals (COs). The Core-orthogonalized SFOs (CSFOs) constitute the true Fock basis.

 The FOs, and hence also the (C)SFOs are combinations of the elementary basis functions (BAS). The basis
 functions that participate in the description of the SFOs depend on the irrep. The indices of the
 involved functions are printed below for each irrep.
 (The complete list of primitive basis functions is printed in another section)

 Total nr. of (C)SFOs (summation over all irreps) :   150

 NOTE: a (C)SFO that is defined as a combination of more than one FO is usually NOT normalized.



                                       === A ===
 Nr. of SFOs :  150
 Cartesian basis functions that participate in this irrep (total number =   156) :
      1     2     3     4     5     6     9    12     7    10
     13     8    11    14    15    16    17    18    19    20
     21    22    23    24    25    26    29    32    27    30
     33    28    31    34    35    36    37    38    39    40
     41    42    43    44    45    46    49    52    47    50
     53    48    51    54    55    56    57    58    59    60
     61    62    63    64    65    66    69    72    67    70
     73    68    71    74    75    76    77    78    79    80
     81    82    83    84    85    86    89    92    87    90
     93    88    91    94    95    96    97    98    99   100
    101   102   103   104   105   106   109   112   107   110
    113   108   111   114   115   116   117   118   119   120
    121   122   123   124   125   126   127   128   129   130
    131   132   133   134   135   136   137   138   139   140
    141   142   143   144   145   146   147   148   149   150
    151   152   153   154   155   156

    SFO  (index         Fragment          Generating    Expansion in Fragment Orbitals
  indx  incl.CFs)   Occup   Orb.Energy   FragmentType  Coeff.   Orbital     on Fragment
 --------------------------------------------------------------------------------------
     1       1      2.000     -10.058 au  C             1.00      1 S               1
                        (    -273.681 eV)
     2       2      2.000      -0.510 au  C             1.00      2 S               1
                        (     -13.876 eV)
     3       3       --         0.371 au  C             1.00      3 S               1
                        (      10.091 eV)
     4       4       --         5.428 au  C             1.00      4 S               1
                        (     147.707 eV)
     5       5       --        50.181 au  C             1.00      5 S               1
                        (    1365.486 eV)
     6       6      0.667      -0.199 au  C             1.00      1 P:x             1
                        (      -5.403 eV)
     7       7       --         0.173 au  C             1.00      2 P:x             1
                        (       4.709 eV)
     8       8       --         2.026 au  C             1.00      3 P:x             1
                        (      55.143 eV)
     9       9      0.667      -0.199 au  C             1.00      1 P:y             1
                        (      -5.403 eV)
    10      10       --         0.173 au  C             1.00      2 P:y             1
                        (       4.709 eV)
    11      11       --         2.026 au  C             1.00      3 P:y             1
                        (      55.143 eV)
    12      12      0.667      -0.199 au  C             1.00      1 P:z             1
                        (      -5.403 eV)
    13      13       --         0.173 au  C             1.00      2 P:z             1
                        (       4.709 eV)
    14      14       --         2.026 au  C             1.00      3 P:z             1
                        (      55.143 eV)
    15      15       --         1.232 au  C             1.00      1 D:z2            1
                        (      33.528 eV)
    16      16       --         1.232 au  C             1.00      1 D:x2-y2         1
                        (      33.528 eV)
    17      17       --         1.232 au  C             1.00      1 D:xy            1
                        (      33.528 eV)
    18      18       --         1.232 au  C             1.00      1 D:xz            1
                        (      33.528 eV)
    19      19       --         1.232 au  C             1.00      1 D:yz            1
                        (      33.528 eV)
    20      20      2.000     -10.058 au  C             1.00      1 S               2
                        (    -273.681 eV)
    21      21      2.000      -0.510 au  C             1.00      2 S               2
                        (     -13.876 eV)
    22      22       --         0.371 au  C             1.00      3 S               2
                        (      10.091 eV)
    23      23       --         5.428 au  C             1.00      4 S               2
                        (     147.707 eV)
    24      24       --        50.181 au  C             1.00      5 S               2
                        (    1365.486 eV)
    25      25      0.667      -0.199 au  C             1.00      1 P:x             2
                        (      -5.403 eV)
    26      26       --         0.173 au  C             1.00      2 P:x             2
                        (       4.709 eV)
    27      27       --         2.026 au  C             1.00      3 P:x             2
                        (      55.143 eV)
    28      28      0.667      -0.199 au  C             1.00      1 P:y             2
                        (      -5.403 eV)
    29      29       --         0.173 au  C             1.00      2 P:y             2
                        (       4.709 eV)
    30      30       --         2.026 au  C             1.00      3 P:y             2
                        (      55.143 eV)
    31      31      0.667      -0.199 au  C             1.00      1 P:z             2
                        (      -5.403 eV)
    32      32       --         0.173 au  C             1.00      2 P:z             2
                        (       4.709 eV)
    33      33       --         2.026 au  C             1.00      3 P:z             2
                        (      55.143 eV)
    34      34       --         1.232 au  C             1.00      1 D:z2            2
                        (      33.528 eV)
    35      35       --         1.232 au  C             1.00      1 D:x2-y2         2
                        (      33.528 eV)
    36      36       --         1.232 au  C             1.00      1 D:xy            2
                        (      33.528 eV)
    37      37       --         1.232 au  C             1.00      1 D:xz            2
                        (      33.528 eV)
    38      38       --         1.232 au  C             1.00      1 D:yz            2
                        (      33.528 eV)
    39      39      2.000     -10.058 au  C             1.00      1 S               3
                        (    -273.681 eV)
    40      40      2.000      -0.510 au  C             1.00      2 S               3
                        (     -13.876 eV)
    41      41       --         0.371 au  C             1.00      3 S               3
                        (      10.091 eV)
    42      42       --         5.428 au  C             1.00      4 S               3
                        (     147.707 eV)
    43      43       --        50.181 au  C             1.00      5 S               3
                        (    1365.486 eV)
    44      44      0.667      -0.199 au  C             1.00      1 P:x             3
                        (      -5.403 eV)
    45      45       --         0.173 au  C             1.00      2 P:x             3
                        (       4.709 eV)
    46      46       --         2.026 au  C             1.00      3 P:x             3
                        (      55.143 eV)
    47      47      0.667      -0.199 au  C             1.00      1 P:y             3
                        (      -5.403 eV)
    48      48       --         0.173 au  C             1.00      2 P:y             3
                        (       4.709 eV)
    49      49       --         2.026 au  C             1.00      3 P:y             3
                        (      55.143 eV)
    50      50      0.667      -0.199 au  C             1.00      1 P:z             3
                        (      -5.403 eV)
    51      51       --         0.173 au  C             1.00      2 P:z             3
                        (       4.709 eV)
    52      52       --         2.026 au  C             1.00      3 P:z             3
                        (      55.143 eV)
    53      53       --         1.232 au  C             1.00      1 D:z2            3
                        (      33.528 eV)
    54      54       --         1.232 au  C             1.00      1 D:x2-y2         3
                        (      33.528 eV)
    55      55       --         1.232 au  C             1.00      1 D:xy            3
                        (      33.528 eV)
    56      56       --         1.232 au  C             1.00      1 D:xz            3
                        (      33.528 eV)
    57      57       --         1.232 au  C             1.00      1 D:yz            3
                        (      33.528 eV)
    58      58      2.000     -10.058 au  C             1.00      1 S               4
                        (    -273.681 eV)
    59      59      2.000      -0.510 au  C             1.00      2 S               4
                        (     -13.876 eV)
    60      60       --         0.371 au  C             1.00      3 S               4
                        (      10.091 eV)
    61      61       --         5.428 au  C             1.00      4 S               4
                        (     147.707 eV)
    62      62       --        50.181 au  C             1.00      5 S               4
                        (    1365.486 eV)
    63      63      0.667      -0.199 au  C             1.00      1 P:x             4
                        (      -5.403 eV)
    64      64       --         0.173 au  C             1.00      2 P:x             4
                        (       4.709 eV)
    65      65       --         2.026 au  C             1.00      3 P:x             4
                        (      55.143 eV)
    66      66      0.667      -0.199 au  C             1.00      1 P:y             4
                        (      -5.403 eV)
    67      67       --         0.173 au  C             1.00      2 P:y             4
                        (       4.709 eV)
    68      68       --         2.026 au  C             1.00      3 P:y             4
                        (      55.143 eV)
    69      69      0.667      -0.199 au  C             1.00      1 P:z             4
                        (      -5.403 eV)
    70      70       --         0.173 au  C             1.00      2 P:z             4
                        (       4.709 eV)
    71      71       --         2.026 au  C             1.00      3 P:z             4
                        (      55.143 eV)
    72      72       --         1.232 au  C             1.00      1 D:z2            4
                        (      33.528 eV)
    73      73       --         1.232 au  C             1.00      1 D:x2-y2         4
                        (      33.528 eV)
    74      74       --         1.232 au  C             1.00      1 D:xy            4
                        (      33.528 eV)
    75      75       --         1.232 au  C             1.00      1 D:xz            4
                        (      33.528 eV)
    76      76       --         1.232 au  C             1.00      1 D:yz            4
                        (      33.528 eV)
    77      77      2.000     -10.058 au  C             1.00      1 S               5
                        (    -273.681 eV)
    78      78      2.000      -0.510 au  C             1.00      2 S               5
                        (     -13.876 eV)
    79      79       --         0.371 au  C             1.00      3 S               5
                        (      10.091 eV)
    80      80       --         5.428 au  C             1.00      4 S               5
                        (     147.707 eV)
    81      81       --        50.181 au  C             1.00      5 S               5
                        (    1365.486 eV)
    82      82      0.667      -0.199 au  C             1.00      1 P:x             5
                        (      -5.403 eV)
    83      83       --         0.173 au  C             1.00      2 P:x             5
                        (       4.709 eV)
    84      84       --         2.026 au  C             1.00      3 P:x             5
                        (      55.143 eV)
    85      85      0.667      -0.199 au  C             1.00      1 P:y             5
                        (      -5.403 eV)
    86      86       --         0.173 au  C             1.00      2 P:y             5
                        (       4.709 eV)
    87      87       --         2.026 au  C             1.00      3 P:y             5
                        (      55.143 eV)
    88      88      0.667      -0.199 au  C             1.00      1 P:z             5
                        (      -5.403 eV)
    89      89       --         0.173 au  C             1.00      2 P:z             5
                        (       4.709 eV)
    90      90       --         2.026 au  C             1.00      3 P:z             5
                        (      55.143 eV)
    91      91       --         1.232 au  C             1.00      1 D:z2            5
                        (      33.528 eV)
    92      92       --         1.232 au  C             1.00      1 D:x2-y2         5
                        (      33.528 eV)
    93      93       --         1.232 au  C             1.00      1 D:xy            5
                        (      33.528 eV)
    94      94       --         1.232 au  C             1.00      1 D:xz            5
                        (      33.528 eV)
    95      95       --         1.232 au  C             1.00      1 D:yz            5
                        (      33.528 eV)
    96      96      2.000     -10.058 au  C             1.00      1 S               6
                        (    -273.681 eV)
    97      97      2.000      -0.510 au  C             1.00      2 S               6
                        (     -13.876 eV)
    98      98       --         0.371 au  C             1.00      3 S               6
                        (      10.091 eV)
    99      99       --         5.428 au  C             1.00      4 S               6
                        (     147.707 eV)
   100     100       --        50.181 au  C             1.00      5 S               6
                        (    1365.486 eV)
   101     101      0.667      -0.199 au  C             1.00      1 P:x             6
                        (      -5.403 eV)
   102     102       --         0.173 au  C             1.00      2 P:x             6
                        (       4.709 eV)
   103     103       --         2.026 au  C             1.00      3 P:x             6
                        (      55.143 eV)
   104     104      0.667      -0.199 au  C             1.00      1 P:y             6
                        (      -5.403 eV)
   105     105       --         0.173 au  C             1.00      2 P:y             6
                        (       4.709 eV)
   106     106       --         2.026 au  C             1.00      3 P:y             6
                        (      55.143 eV)
   107     107      0.667      -0.199 au  C             1.00      1 P:z             6
                        (      -5.403 eV)
   108     108       --         0.173 au  C             1.00      2 P:z             6
                        (       4.709 eV)
   109     109       --         2.026 au  C             1.00      3 P:z             6
                        (      55.143 eV)
   110     110       --         1.232 au  C             1.00      1 D:z2            6
                        (      33.528 eV)
   111     111       --         1.232 au  C             1.00      1 D:x2-y2         6
                        (      33.528 eV)
   112     112       --         1.232 au  C             1.00      1 D:xy            6
                        (      33.528 eV)
   113     113       --         1.232 au  C             1.00      1 D:xz            6
                        (      33.528 eV)
   114     114       --         1.232 au  C             1.00      1 D:yz            6
                        (      33.528 eV)
   115     115      1.000      -0.244 au  H             1.00      1 S               7
                        (      -6.626 eV)
   116     116       --         0.093 au  H             1.00      2 S               7
                        (       2.536 eV)
   117     117       --         1.515 au  H             1.00      3 S               7
                        (      41.236 eV)
   118     118       --         0.400 au  H             1.00      1 P:x             7
                        (      10.872 eV)
   119     119       --         0.400 au  H             1.00      1 P:y             7
                        (      10.872 eV)
   120     120       --         0.400 au  H             1.00      1 P:z             7
                        (      10.872 eV)
   121     121      1.000      -0.244 au  H             1.00      1 S               8
                        (      -6.626 eV)
   122     122       --         0.093 au  H             1.00      2 S               8
                        (       2.536 eV)
   123     123       --         1.515 au  H             1.00      3 S               8
                        (      41.236 eV)
   124     124       --         0.400 au  H             1.00      1 P:x             8
                        (      10.872 eV)
   125     125       --         0.400 au  H             1.00      1 P:y             8
                        (      10.872 eV)
   126     126       --         0.400 au  H             1.00      1 P:z             8
                        (      10.872 eV)
   127     127      1.000      -0.244 au  H             1.00      1 S               9
                        (      -6.626 eV)
   128     128       --         0.093 au  H             1.00      2 S               9
                        (       2.536 eV)
   129     129       --         1.515 au  H             1.00      3 S               9
                        (      41.236 eV)
   130     130       --         0.400 au  H             1.00      1 P:x             9
                        (      10.872 eV)
   131     131       --         0.400 au  H             1.00      1 P:y             9
                        (      10.872 eV)
   132     132       --         0.400 au  H             1.00      1 P:z             9
                        (      10.872 eV)
   133     133      1.000      -0.244 au  H             1.00      1 S              10
                        (      -6.626 eV)
   134     134       --         0.093 au  H             1.00      2 S              10
                        (       2.536 eV)
   135     135       --         1.515 au  H             1.00      3 S              10
                        (      41.236 eV)
   136     136       --         0.400 au  H             1.00      1 P:x            10
                        (      10.872 eV)
   137     137       --         0.400 au  H             1.00      1 P:y            10
                        (      10.872 eV)
   138     138       --         0.400 au  H             1.00      1 P:z            10
                        (      10.872 eV)
   139     139      1.000      -0.244 au  H             1.00      1 S              11
                        (      -6.626 eV)
   140     140       --         0.093 au  H             1.00      2 S              11
                        (       2.536 eV)
   141     141       --         1.515 au  H             1.00      3 S              11
                        (      41.236 eV)
   142     142       --         0.400 au  H             1.00      1 P:x            11
                        (      10.872 eV)
   143     143       --         0.400 au  H             1.00      1 P:y            11
                        (      10.872 eV)
   144     144       --         0.400 au  H             1.00      1 P:z            11
                        (      10.872 eV)
   145     145      1.000      -0.244 au  H             1.00      1 S              12
                        (      -6.626 eV)
   146     146       --         0.093 au  H             1.00      2 S              12
                        (       2.536 eV)
   147     147       --         1.515 au  H             1.00      3 S              12
                        (      41.236 eV)
   148     148       --         0.400 au  H             1.00      1 P:x            12
                        (      10.872 eV)
   149     149       --         0.400 au  H             1.00      1 P:y            12
                        (      10.872 eV)
   150     150       --         0.400 au  H             1.00      1 P:z            12
                        (      10.872 eV)



 ================================
 (Slater-type)  F U N C T I O N S  ***  (Basis and Fit)  ***
 ================================
  

 Atom Type    1  (C)
 ==============

 Valence Basis Sets:   9
 -----------------------
   1 S    7.680000
   1 S    5.000000
   2 S    1.280000
   2 S    2.100000
   2 S    4.600000
   2 P    0.820000
   2 P    1.480000
   2 P    2.940000
   3 D    2.200000

 Atom Type    2  (H)
 ==============

 Valence Basis Sets:   4
 -----------------------
   1 S    0.690000
   1 S    0.920000
   1 S    1.580000
   2 P    1.250000


 BAS: List of all Elementary Cartesian Basis Functions
 =====================================================

 The numbering in the list below (to the right of the function characteristics) is referred
 to in print-outs of MO eigenvectors and Mulliken populations in the BAS representation
 (as contrasted to the SFO representation).

 Notes:
 1. The functions are characterized by a polynomial prefactor (powers of x,y,z and r) and
    an exponential decay factor alpha.
 2. Since the basis sets are specific for an atom TYPE, the individual functions occur on
    all atoms of that type.
 3. The word 'Core' in the left margin signals that it is a Core Function (CF) : not a
    degree of freedom in the valence set, but only used to ensure orthogonalization of
    the other valence basis functions on the frozen Core Orbitals.


 (power of) X  Y  Z  R     Alpha  on Atom
            ==========     =====     ==========

 C                                    1    2    3    4    5    6
                                  ---------------------------------------------------------------------------
            0  0  0  0     7.680      1   21   41   61   81  101
            0  0  0  0     5.000      2   22   42   62   82  102
            0  0  0  1     1.280      3   23   43   63   83  103
            0  0  0  1     2.100      4   24   44   64   84  104
            0  0  0  1     4.600      5   25   45   65   85  105
            1  0  0  0     0.820      6   26   46   66   86  106
            0  1  0  0     0.820      7   27   47   67   87  107
            0  0  1  0     0.820      8   28   48   68   88  108
            1  0  0  0     1.480      9   29   49   69   89  109
            0  1  0  0     1.480     10   30   50   70   90  110
            0  0  1  0     1.480     11   31   51   71   91  111
            1  0  0  0     2.940     12   32   52   72   92  112
            0  1  0  0     2.940     13   33   53   73   93  113
            0  0  1  0     2.940     14   34   54   74   94  114
            2  0  0  0     2.200     15   35   55   75   95  115
            1  1  0  0     2.200     16   36   56   76   96  116
            1  0  1  0     2.200     17   37   57   77   97  117
            0  2  0  0     2.200     18   38   58   78   98  118
            0  1  1  0     2.200     19   39   59   79   99  119
            0  0  2  0     2.200     20   40   60   80  100  120

 H                                    7    8    9   10   11   12
                                  ---------------------------------------------------------------------------
            0  0  0  0     0.690    121  127  133  139  145  151
            0  0  0  0     0.920    122  128  134  140  146  152
            0  0  0  0     1.580    123  129  135  141  147  153
            1  0  0  0     1.250    124  130  136  142  148  154
            0  1  0  0     1.250    125  131  137  143  149  155
            0  0  1  0     1.250    126  132  138  144  150  156

 Total number of charge fitting functions (nprimf)       804
 Total number of Cartesian basis functions (naos)        156
 Total number of Cartesian core functions  (ncos)          0

1
 ***************************************************************************************************



                                              ***********************
                                              *  T E C H N I C A L  *
                                              ***********************
  



 =============================================================
 P A R A L L E L I Z A T I O N  and  V E C T O R I Z A T I O N
 =============================================================
  
 Nr of parallel processes:                                6
 Maximum vector length in NumInt loops:                 128



 =====================
 S C F   U P D A T E S
 =====================
  
 Max. nr. of cycles:                               300
 Convergence criterion:                              0.0000010000
   secondary criterion:                              0.0010000000

 Mix parameter (when DIIS does not apply):           0.2000000000
 Mixed ADIIS+SDIIS will be used                  
    Max number of expansion vectors:                10
    Pure ADIIS when Max([F,P]) is above              0.1000000000
    Pure SDIIS when Max([F,P]) is below              0.0010000000
 Automatic ElectronSmearing (in case of problematic SCF convergence) disabled



 =================
 P R E C I S I O N  ***  (General: NumInt, NeglectFunctionTails, ...)  ***
 =================
  

 NumInt:           Target precision:                 4.0000000000
 -------           Initial precision:                4.0000000000
                   Min. precision (optimization):    4.0000000000

 Neglect Functions:          Basis functions:        0.1000000000E-13
 ------------------          Fit functions:          0.1000000000E-13



 ===========================
 L I N E A R   S C A L I N G
 ===========================
  

 Cut-off radii density fit:                        0.1000000000E-07
 Overlap cut-off criterion AO matrix elements:     0.1000000000E-05
 Cut-offs for Coulomb potential and fitted density:0.1000000000E-07
 Cut-off criterion for Coulomb multipole terms:    0.1000000000E-07
 Progressive Convergence parameter:                 0.000000000    
1
 ***************************************************************************************************



                                            ***************************
                                            *  C O M P U T A T I O N  *
                                            ***************************
  

 Number of elements of the density matrix on this node (used, total):      1962     12246



 ===========================================
 Numerical Integration : Fuzzy Cells (Becke)
 ===========================================
  
 Becke grid quality: NORMAL         
  
 Lebedev angular grid order:             min:  11 max:  23
 Nr. of radial points:                   min:  46 max:  52

 Total nr. of points:      75660
 Nr. of blocks:              592
 Block length:               128
 Nr. of dummy points:        116


 Test of Precision of the Numerical Integration Grid
 ===================================================

 Integral of the Total Core Density:                   0.00000000000000



 ========================
 Density Fitting (zlmFit)
 ========================
  
 ZlmFit Fit Quality: NORMAL         
  
 Max L-expansion:                        min:   5 max:   6
 Nr. of radial interpolation points:     min:  36 max:  48



 =====
 S C F  ***  ScaSCF  ***
 =====
  
 Initial density matrix is calculated as sum of fragments

 CYCLE    1
 SCF Error: norm([F,P])=      5.974752643205, max([F,P])=      0.979126663757
 orbitals (Q,E):
 ---------------
 A :12...31          ( 2.00    -0.6576)  ( 2.00    -0.6241)  ( 2.00    -0.5884)  ( 2.00    -0.5686)
                     ( 2.00    -0.5684)  ( 2.00    -0.5022)  ( 2.00    -0.5013)  ( 2.00    -0.5012)
                     ( 2.00    -0.4049)  ( 2.00    -0.4049)  ( 0.00    -0.2150)  ( 0.00    -0.2150)
                     ( 0.00    -0.0771)  ( 0.00    -0.0730)  ( 0.00    -0.0374)  ( 0.00    -0.0374)
                     ( 0.00    -0.0113)  ( 0.00    -0.0113)  ( 0.00     0.0268)  ( 0.00     0.0513)

 CYCLE    2
   MIX coefficients:  0.8000  0.2000
 SCF Error: norm([F,P])=      0.889119541114, max([F,P])=      0.186357884060
 orbitals (Q,E):
 ---------------
 A :12...22          ( 2.00    -0.5941)  ( 2.00    -0.5414)  ( 2.00    -0.5329)  ( 2.00    -0.5019)
                     ( 2.00    -0.5017)  ( 2.00    -0.4359)  ( 2.00    -0.4342)  ( 2.00    -0.4342)
                     ( 2.00    -0.3385)  ( 2.00    -0.3384)  ( 0.00    -0.1502)

 CYCLE    3
  SDIIS (wt  0.000): -1.2672  2.2672
 A-DIIS (wt  1.000):  0.0000  1.0000
  DIIS coefficients:  0.0000  1.0000
 SCF Error: norm([F,P])=      0.519671108488, max([F,P])=      0.102196992292
 orbitals (Q,E):
 ---------------
 A :12...22          ( 2.00    -0.3985)  ( 2.00    -0.3568)  ( 2.00    -0.2968)  ( 2.00    -0.2966)
                     ( 2.00    -0.2952)  ( 2.00    -0.2475)  ( 2.00    -0.2231)  ( 2.00    -0.2230)
                     ( 2.00    -0.1501)  ( 2.00    -0.1500)  ( 0.00     0.0284)

 CYCLE    4
  SDIIS (wt  0.000):  0.1894  0.3445  0.4662
 A-DIIS (wt  1.000):  0.0000  0.6398  0.3602
  DIIS coefficients:  0.0000  0.6398  0.3602
 SCF Error: norm([F,P])=      0.740030658129, max([F,P])=      0.171875863367
 orbitals (Q,E):
 ---------------
 A :12...22          ( 2.00    -0.4670)  ( 2.00    -0.4041)  ( 2.00    -0.3931)  ( 2.00    -0.3709)
                     ( 2.00    -0.3707)  ( 2.00    -0.3289)  ( 2.00    -0.2972)  ( 2.00    -0.2971)
                     ( 2.00    -0.2286)  ( 2.00    -0.2285)  ( 0.00    -0.0408)

 CYCLE    5
  SDIIS (wt  0.903): -0.0167  0.2153  0.0740  0.7274
 A-DIIS (wt  0.097):  0.0000  0.0000  0.0000  1.0000
  DIIS coefficients: -0.0151  0.1945  0.0669  0.7537
 SCF Error: norm([F,P])=      0.075730166301, max([F,P])=      0.010564755793
 orbitals (Q,E):
 ---------------
 A :12...22          ( 2.00    -0.4790)  ( 2.00    -0.4190)  ( 2.00    -0.4080)  ( 2.00    -0.3827)
                     ( 2.00    -0.3824)  ( 2.00    -0.3375)  ( 2.00    -0.3110)  ( 2.00    -0.3110)
                     ( 2.00    -0.2382)  ( 2.00    -0.2382)  ( 0.00    -0.0513)

 CYCLE    6
  SDIIS (wt  0.993): -0.0027  0.0313  0.0082  0.1924  0.7707
 A-DIIS (wt  0.007):  0.0000  0.0000  0.0000  0.0000  1.0000
  DIIS coefficients: -0.0027  0.0311  0.0082  0.1911  0.7723
 SCF Error: norm([F,P])=      0.010607135182, max([F,P])=      0.001665532485
 orbitals (Q,E):
 ---------------
 A :12...22          ( 2.00    -0.4787)  ( 2.00    -0.4183)  ( 2.00    -0.4070)  ( 2.00    -0.3825)
                     ( 2.00    -0.3823)  ( 2.00    -0.3370)  ( 2.00    -0.3105)  ( 2.00    -0.3104)
                     ( 2.00    -0.2376)  ( 2.00    -0.2375)  ( 0.00    -0.0505)

 CYCLE    7
  SDIIS (wt  1.000):  0.0009  0.0019  0.0002  0.0235  0.1236  0.8498
  DIIS coefficients:  0.0009  0.0019  0.0002  0.0235  0.1236  0.8498
 SCF Error: norm([F,P])=      0.001130291570, max([F,P])=      0.000269509091
 orbitals (Q,E):
 ---------------
 A :12...22          ( 2.00    -0.4788)  ( 2.00    -0.4184)  ( 2.00    -0.4072)  ( 2.00    -0.3826)
                     ( 2.00    -0.3824)  ( 2.00    -0.3371)  ( 2.00    -0.3106)  ( 2.00    -0.3105)
                     ( 2.00    -0.2377)  ( 2.00    -0.2377)  ( 0.00    -0.0507)

 CYCLE    8
  SDIIS (wt  1.000):  0.0006  0.0005  0.0000  0.0094  0.0527  0.4264  0.5105
  DIIS coefficients:  0.0006  0.0005  0.0000  0.0094  0.0527  0.4264  0.5105
 SCF Error: norm([F,P])=      0.000333455344, max([F,P])=      0.000080899358
 orbitals (Q,E):
 ---------------
 A :12...22          ( 2.00    -0.4788)  ( 2.00    -0.4184)  ( 2.00    -0.4072)  ( 2.00    -0.3826)
                     ( 2.00    -0.3824)  ( 2.00    -0.3372)  ( 2.00    -0.3106)  ( 2.00    -0.3106)
                     ( 2.00    -0.2377)  ( 2.00    -0.2377)  ( 0.00    -0.0507)

 CYCLE    9
  SDIIS (wt  1.000):  0.0001 -0.0002 -0.0000 -0.0004 -0.0008  0.0142  0.3248  0.6624
  DIIS coefficients:  0.0001 -0.0002 -0.0000 -0.0004 -0.0008  0.0142  0.3248  0.6624
 SCF Error: norm([F,P])=      0.000157731253, max([F,P])=      0.000038884458
 orbitals (Q,E):
 ---------------
 A :12...22          ( 2.00    -0.4788)  ( 2.00    -0.4184)  ( 2.00    -0.4072)  ( 2.00    -0.3826)
                     ( 2.00    -0.3824)  ( 2.00    -0.3372)  ( 2.00    -0.3106)  ( 2.00    -0.3106)
                     ( 2.00    -0.2377)  ( 2.00    -0.2377)  ( 0.00    -0.0507)

 CYCLE   10
  SDIIS (wt  1.000):  0.0000 -0.0001 -0.0000 -0.0001 -0.0003  0.0046  0.1092  0.2241  0.6627
  DIIS coefficients:  0.0000 -0.0001 -0.0000 -0.0001 -0.0003  0.0046  0.1092  0.2241  0.6627
 SCF Error: norm([F,P])=      0.000005871793, max([F,P])=      0.000001374167
 orbitals (Q,E):
 ---------------
 A :12...22          ( 2.00    -0.4788)  ( 2.00    -0.4184)  ( 2.00    -0.4072)  ( 2.00    -0.3826)
                     ( 2.00    -0.3824)  ( 2.00    -0.3372)  ( 2.00    -0.3106)  ( 2.00    -0.3106)
                     ( 2.00    -0.2377)  ( 2.00    -0.2377)  ( 0.00    -0.0507)

 CYCLE   11
  SDIIS (wt  1.000):  0.0000 -0.0000 -0.0000  0.0000 -0.0000 -0.0002 -0.0025 -0.0040  0.5947  0.4119
  DIIS coefficients:  0.0000 -0.0000 -0.0000  0.0000 -0.0000 -0.0002 -0.0025 -0.0040  0.5947  0.4119
 SCF Error: norm([F,P])=      0.000008201077, max([F,P])=      0.000001984254
 orbitals (Q,E):
 ---------------
 A :12...22          ( 2.00    -0.4788)  ( 2.00    -0.4184)  ( 2.00    -0.4072)  ( 2.00    -0.3826)
                     ( 2.00    -0.3824)  ( 2.00    -0.3372)  ( 2.00    -0.3106)  ( 2.00    -0.3106)
                     ( 2.00    -0.2377)  ( 2.00    -0.2377)  ( 0.00    -0.0507)

 CYCLE   12
  SDIIS (wt  1.000): -0.0000 -0.0000  0.0000 -0.0000 -0.0002 -0.0027 -0.0049  0.2930  0.2046  0.5102
  DIIS coefficients: -0.0000 -0.0000  0.0000 -0.0000 -0.0002 -0.0027 -0.0049  0.2930  0.2046  0.5102
 SCF Error: norm([F,P])=      0.000000201646, max([F,P])=      0.000000041172
 orbitals (Q,E):
 ---------------
 A :12...22          ( 2.00    -0.4788)  ( 2.00    -0.4184)  ( 2.00    -0.4072)  ( 2.00    -0.3826)
                     ( 2.00    -0.3824)  ( 2.00    -0.3372)  ( 2.00    -0.3106)  ( 2.00    -0.3106)
                     ( 2.00    -0.2377)  ( 2.00    -0.2377)  ( 0.00    -0.0507)

 SCF CONVERGED

 CYCLE   13
1
 ***************************************************************************************************



                                                *******************
                                                *  R E S U L T S  *
                                                *******************
  
 *** Using FIT density in Focky
  SDIIS (wt  1.000): -0.0000  0.0000 -0.0000 -0.0000 -0.0001 -0.0002  0.0185  0.0132  0.3473  0.6214
  DIIS coefficients: -0.0000  0.0000 -0.0000 -0.0000 -0.0001 -0.0002  0.0185  0.0132  0.3473  0.6214
 SCF Error: norm([F,P])=      0.000000108066, max([F,P])=      0.000000021757

 Orbital Energies, per Irrep and Spin:
 ======================================
                        Occup              E (au)              E (eV)       Diff (eV) with prev. cycle
                        -----      --------------------        ------       --------------------------
 A
              12        2.000     -0.47882552548502E+00       -13.030              -2.38E-08
              13        2.000     -0.41842446125803E+00       -11.386              -2.26E-08
              14        2.000     -0.40722464037389E+00       -11.081              -6.20E-09
              15        2.000     -0.38262569562715E+00       -10.412              -2.57E-08
              16        2.000     -0.38240366162285E+00       -10.406              -1.41E-08
              17        2.000     -0.33716240476156E+00        -9.175              -1.85E-08
              18        2.000     -0.31064323278214E+00        -8.453              -1.07E-08
              19        2.000     -0.31056606640744E+00        -8.451              -1.81E-08
              20        2.000     -0.23774368177923E+00        -6.469              -2.43E-08
              21        2.000     -0.23768488526106E+00        -6.468              -6.90E-09
              22        0.000     -0.50699159421864E-01        -1.380
              23        0.000     -0.50650044222193E-01        -1.378
              24        0.000      0.20496492965294E-02         0.056
              25        0.000      0.27826471422194E-01         0.757
              26        0.000      0.27850642760268E-01         0.758
              27        0.000      0.60571445327149E-01         1.648
              28        0.000      0.60621847463446E-01         1.650
              29        0.000      0.89944931372006E-01         2.448
              30        0.000      0.95917805902686E-01         2.610
              31        0.000      0.14223182899690E+00         3.870
  
 HOMO :       21 A                -0.23768488526106E+00
 LUMO :       22 A                -0.50699159421864E-01
  


 All Electron Calculation, thus no Orbital Energies of the Core Orbitals are calculated


 Fit test: (difference of exact and fit density, squared integrated, result summed over spins)
         Sum-of-Fragments:                             0.00000000048367
         Orthogonalized Fragments:                     0.00013212745671
         SCF:                                          0.00048570131649



 ==========================
 Electron Density at Nuclei
 ==========================
  
 The electron density is calculated at points on a small sphere around the center of a nucleus.
 The printed electron density is the average electron density on these points.
 The radius of the sphere is the printed approximate finite nuclear radius.

         Atom        Nuclear Radius (Angstrom)             Electron Density (a.u.)
         ----        -------------------------             -----------------------
     1)   C                 0.0000320678                              126.51355
     2)   C                 0.0000320678                              126.51485
     3)   C                 0.0000320678                              126.51378
     4)   C                 0.0000320678                              126.51356
     5)   C                 0.0000320678                              126.51484
     6)   C                 0.0000320678                              126.51376
     7)   H                 0.0000181514                                0.49860
     8)   H                 0.0000181514                                0.49855
     9)   H                 0.0000181514                                0.49850
    10)   H                 0.0000181514                                0.49860
    11)   H                 0.0000181514                                0.49850
    12)   H                 0.0000181514                                0.49850



 =======================================
 M U L L I K E N   P O P U L A T I O N S
 =======================================
  
 The survey below gives for each atom:
 a) the total charge (Z minus electrons)
 b) the net spin polarization (nr of electrons spin-A minus spin-B)
 c) for each spin the atomic electron valence density (integrated) per L-value.

 Atom              Charge    Spin density          S         P         D         F
 ----              ------    ------------       ------    ------    ------    ------
 1 C               0.1750                       3.0661    2.6982    0.0608    0.0000
 2 C               0.1753                       3.0661    2.6979    0.0608    0.0000
 3 C               0.1751                       3.0661    2.6980    0.0608    0.0000
 4 C               0.1750                       3.0661    2.6982    0.0608    0.0000
 5 C               0.1753                       3.0660    2.6979    0.0608    0.0000
 6 C               0.1751                       3.0661    2.6980    0.0608    0.0000
 7 H              -0.1755                       1.1040    0.0715    0.0000    0.0000
 8 H              -0.1752                       1.1038    0.0714    0.0000    0.0000
 9 H              -0.1746                       1.1033    0.0714    0.0000    0.0000
 10 H             -0.1755                       1.1040    0.0715    0.0000    0.0000
 11 H             -0.1752                       1.1038    0.0714    0.0000    0.0000
 12 H             -0.1746                       1.1032    0.0714    0.0000    0.0000

 Populations of individual BAS functions
 ----------------------------------------
 1 C            0.4869  1.5145  0.2310  0.8872 -0.0535 -0.1032  0.1479 -0.2375  0.8051  0.6777
                0.8822  0.1997  0.1365  0.1897  0.0267  0.0121  0.0173 -0.0175  0.0040  0.0180
 2 C            0.4870  1.5144  0.2309  0.8873 -0.0535 -0.2022  0.1477 -0.1394  0.8619  0.6778
                0.8262  0.1924  0.1365  0.1970  0.0181  0.0062  0.0220 -0.0175  0.0100  0.0221
 3 C            0.4869  1.5145  0.2309  0.8872 -0.0535 -0.2070  0.1478 -0.1343  0.8646  0.6778
                0.8232  0.1920  0.1365  0.1974  0.0179  0.0059  0.0215 -0.0175  0.0103  0.0227
 4 C            0.4869  1.5145  0.2310  0.8872 -0.0535 -0.1032  0.1479 -0.2375  0.8052  0.6777
                0.8822  0.1997  0.1365  0.1897  0.0267  0.0121  0.0173 -0.0175  0.0040  0.0180
 5 C            0.4870  1.5144  0.2309  0.8873 -0.0535 -0.2022  0.1477 -0.1394  0.8619  0.6778
                0.8262  0.1924  0.1365  0.1970  0.0181  0.0062  0.0220 -0.0175  0.0100  0.0221
 6 C            0.4869  1.5145  0.2310  0.8872 -0.0535 -0.2070  0.1478 -0.1343  0.8645  0.6778
                0.8232  0.1920  0.1365  0.1974  0.0179  0.0059  0.0215 -0.0175  0.0103  0.0227
 7 H            0.2092  0.5760  0.3188  0.0288  0.0217  0.0209
 8 H            0.2088  0.5763  0.3188  0.0295  0.0217  0.0202
 9 H            0.2080  0.5764  0.3189  0.0162  0.0217  0.0334
 10 H           0.2092  0.5761  0.3188  0.0288  0.0217  0.0209
 11 H           0.2087  0.5763  0.3187  0.0295  0.0217  0.0202
 12 H           0.2080  0.5764  0.3189  0.0162  0.0217  0.0334

 Gross Charges per Atom (Z minus electrons)
 ==========================================
             0.1750    0.1753    0.1751    0.1750    0.1753    0.1751   -0.1755   -0.1752   -0.1746   -0.1755
            -0.1752   -0.1746
 Net Total: -0.00000000


 Atom-Atom Population Matrix (off-diagonal elements not doubled)
 ===============================================================

     1 :     4.5243
     2 :     0.5412    4.5236
     3 :    -0.0108    0.5412    4.5237
     4 :    -0.0555   -0.0107    0.5413    4.5243
     5 :    -0.0107   -0.0553   -0.0108    0.5412    4.5237
     6 :     0.5413   -0.0108   -0.0553   -0.0108    0.5412    4.5238
     7 :    -0.0536    0.3939   -0.0535    0.0022    0.0040    0.0022    0.9812
     8 :     0.0022   -0.0534    0.3940   -0.0536    0.0022    0.0041   -0.0475    0.9809
     9 :     0.0041    0.0021   -0.0534    0.3940   -0.0533    0.0022   -0.0038   -0.0474    0.9799
    10 :     0.0022    0.0040    0.0022   -0.0536    0.3939   -0.0535    0.0015   -0.0038   -0.0474    0.9812
    11 :    -0.0536    0.0022    0.0041    0.0022   -0.0534    0.3940   -0.0038    0.0015   -0.0038   -0.0475
             0.9809
    12 :     0.3940   -0.0533    0.0022    0.0041    0.0021   -0.0534   -0.0475   -0.0038    0.0016   -0.0038
            -0.0474    0.9799



 =================================================
 H I R S H F E L D   C H A R G E   A N A L Y S I S
 =================================================
  
 For each fragment: the (numerical) integral of rho(scf) * rho(fragment)/rho(sum-of-fragments)
 (nuclear charges are included, electrons are counted negative)

 The fragments and their ordering are defined in the early G E O M E T R Y output section.
 If you use single-atom fragments, this usually implies that all atoms of the same
 chemical type are grouped together. This may not be the order in which you listed them
 in the input file!

    1  C                        -0.0463
    2  C                        -0.0463
    3  C                        -0.0463
    4  C                        -0.0463
    5  C                        -0.0463
    6  C                        -0.0463
    7  H                         0.0463
    8  H                         0.0463
    9  H                         0.0462
   10  H                         0.0463
   11  H                         0.0463
   12  H                         0.0462

 Sum of these charges (accuracy NumInt/Tails) =          -0.00005957



 =============================
 V O R O N O I   C H A R G E S
 =============================
  
 For each atom: the (numerical) integral of the total electronic charge density in its Voronoi cell,
 i.e. the region of space that is closer to that atom than to any other atom.
 (cf. Wigner-Seitz cells in crystals)

 Within the Voronoi cell the subintegrals over the atomic sphere and the remaining part are evaluated
 separately to give the numbers of electrons (negative charge) in these regions.
 The net total charge in the cell (including the nuclear charge) is also given.

 Values are provided for
    a) the Initial (sum-of-fragments) density
    b) the Orthogonalized-Fragments density
    c) the SCF density
    d) the Voronoi Deformation Density (VDD): the difference SCF-Initial for the complete atomic cell


  Atom                Initial                    OrthFrag                   SCF
             Sphere RestCell NetTotal   Sphere RestCell NetTotal   Sphere RestCell NetTotal      VDD
 -----       ------------------------   ------------------------   ------------------------    -----
    1 C      -2.268   -3.186    0.545   -2.452   -3.138    0.410   -2.303   -3.207    0.490   -0.055
    2 C      -2.268   -3.190    0.542   -2.452   -3.137    0.411   -2.303   -3.207    0.490   -0.052
    3 C      -2.268   -3.190    0.541   -2.452   -3.143    0.405   -2.303   -3.212    0.485   -0.056
    4 C      -2.268   -3.186    0.545   -2.452   -3.138    0.410   -2.303   -3.207    0.490   -0.055
    5 C      -2.268   -3.190    0.542   -2.452   -3.137    0.411   -2.303   -3.207    0.490   -0.052
    6 C      -2.268   -3.190    0.541   -2.452   -3.143    0.405   -2.303   -3.212    0.485   -0.056
    7 H      -0.075   -1.473   -0.548   -0.096   -1.318   -0.413   -0.109   -1.384   -0.493    0.055
    8 H      -0.075   -1.464   -0.539   -0.096   -1.309   -0.405   -0.109   -1.375   -0.484    0.055
    9 H      -0.075   -1.467   -0.542   -0.096   -1.313   -0.409   -0.109   -1.379   -0.488    0.053
   10 H      -0.075   -1.473   -0.548   -0.096   -1.318   -0.413   -0.109   -1.384   -0.493    0.055
   11 H      -0.075   -1.464   -0.539   -0.096   -1.309   -0.405   -0.109   -1.375   -0.484    0.055
   12 H      -0.075   -1.467   -0.542   -0.096   -1.313   -0.409   -0.109   -1.379   -0.488    0.053
 ---------------------------------------------------------------------------------------------------
 Total NetCharge:              -0.000                     -0.000                     -0.000    0.000
 (accuracy NumInt/Tails)

 Remark: the 'NetTotal' Voronoi charges often do not match the Mulliken and/or Hirshfeld charges very
 well. This is caused by the fact that chemically different atoms are not treated in accordance with
 their relative sizes. (Voronoi cells are defined by boundary planes halfway between the atoms.)
 However, the CHANGES in charge, comparing 'Initial' to 'SCF' for instance, do give a fair indication
 of the flow of charge caused by the relaxation from sum-of-fragments to self-consistency.

 Warning: the absolute accuracy of the VDD charges obtained using the Fuzzy Cells (Becke) integration
 scheme is much poorer than the one obtained with an 'equivalent' Voronoi integration grid. 



 =================================================================
 M U L T I P O L E   D E R I V E D   C H A R G E   A N A L Y S I S
 =================================================================

 This charge analysis uses the atomic multipoles (obtained from the fitted density) up to some level X,
 and reconstructs these multipoles exactly (up to level X) by distributing charges over all atoms.
 This is achieved by using Lagrange multipliers and a weight function to keep the multipoles local.

 Dummy atoms can be included (by setting INCDUM in MDC-block to 1) to obtain a fractional charge.
 This is generally useful and necessary only for small symmetrical molecules, when there are not
 enough degrees of freedom to reconstruct the multipoles.

 Since the atomic multipoles are reconstructed up to level X,
 the molecular multipoles are represented also up to level X.
 The recommended level is to reconstruct up to quadrupole : -> MDC-q charges.

 See: M. Swart, P.Th. van Duijnen, J.G. Snijders, J.Comput.Chem., (2001), p. 79-88.

 ------------------------------------------------------------- 
 Atomic electronic multipole moments from SCF equations (a.u.)
 ------------------------------------------------------------- 

   atom        charge        dip-x     dip-y     dip-z      quad-xx   quad-xy   quad-xz   quad-yy   quad-yz   quad-zz
 --------------------------------------------------------------------------------------------------------------------
    1 C      0.060764     0.000995  0.000000 -0.047723     0.468862 -0.000000 -0.000756 -0.997365 -0.000000  0.528502
    2 C      0.060360    -0.042570  0.000000 -0.025920     0.509295 -0.000000  0.015147 -0.994579  0.000000  0.485284
    3 C      0.060495    -0.042985 -0.000000  0.023702     0.512900 -0.000000 -0.015243 -0.995620  0.000000  0.482720
    4 C      0.060765    -0.001014  0.000000  0.047725     0.468876 -0.000000 -0.000797 -0.997368  0.000000  0.528492
    5 C      0.060358     0.042570 -0.000000  0.025916     0.509313 -0.000000  0.015151 -0.994579  0.000000  0.485265
    6 C      0.060487     0.042958 -0.000000 -0.023677     0.512915 -0.000000 -0.015212 -0.995614 -0.000000  0.482699
    7 H     -0.060528    -0.019594  0.000000 -0.011950     0.160455  0.000000  0.080604 -0.195546 -0.000000  0.035091
    8 H     -0.060518    -0.019977  0.000000  0.011042     0.170825 -0.000000 -0.076706 -0.195845  0.000000  0.025020
    9 H     -0.060574    -0.000499  0.000000  0.022796    -0.038631  0.000000 -0.003880 -0.195067 -0.000000  0.233698
   10 H     -0.060526     0.019598  0.000000  0.011949     0.160461  0.000000  0.080605 -0.195545  0.000000  0.035084
   11 H     -0.060510     0.019995  0.000000 -0.011043     0.170831  0.000000 -0.076699 -0.195841 -0.000000  0.025010
   12 H     -0.060572     0.000485  0.000000 -0.022798    -0.038636  0.000000 -0.003865 -0.195065  0.000000  0.233701

 --------------------------------------- 
 Multipole derived atomic charges (a.u.)
 --------------------------------------- 

 The MDC-m charges are just the Monopole terms in the multipole expansion, while for the MDC-d charges
 also the Dipoles are reconstructed. The usually preferred charges are the MDC-q charges.
 These reconstruct the Monopoles, Dipoles and Quadrupoles (both atomic AND molecular).

        Atom    Level:     MDC-m        MDC-d        MDC-q
 ---------------------------------------------------------
     1     C            0.060764     0.034580    -0.126373
     2     C            0.060360     0.034156    -0.128438
     3     C            0.060495     0.034306    -0.128232
     4     C            0.060765     0.034580    -0.126365
     5     C            0.060358     0.034155    -0.128447
     6     C            0.060487     0.034297    -0.128204
     7     H           -0.060528    -0.034018     0.128095
     8     H           -0.060518    -0.034287     0.127850
     9     H           -0.060574    -0.034734     0.127092
    10     H           -0.060526    -0.034016     0.128099
    11     H           -0.060510    -0.034287     0.127829
    12     H           -0.060572    -0.034733     0.127095

 ------------------------------------------------ 
 Average absolute deviations in atomic multipoles
 ------------------------------------------------ 

 Stated here are the average differences between the atomic multipoles
 and the reconstructed atomic multipoles (from the distributed charges).
 If these values are not zero, this means there are not enough degrees of freedom,
 to be able to reconstruct the atomic multipoles. (This usually happens only
 for small and/or highly symmetric molecules). If this is the case, one could add
 dummy atoms as extra point charges (and setting INCDUM in MDC-block to 1).

 Level:                                 MDC-d        MDC-q
 ---------------------------------------------------------
 Charge   (a.u.)                       0.0000       0.0000
 Dipole   (Debye)                      0.0000       0.0000
 Quad.    (a.u.)                       0.2137       0.0000

 --------------------------------------- 
 Represented molecular multipole moments
 --------------------------------------- 

 Given here are the Molecular multipole moments from the atomic charges, and from the Fit Density.
 Note that the atomic charges represent the latter, NOT the ones from the Exact density.

            Q (a.u.)             Dipole moment (Debye)                                          Quadrupole moment (a.u.)
                                 x         y         z              xx        xy        xz        yy        yz        zz
------------------------------------------------------------------------------------------------------------------------
MDC-m         0.0000        0.0000    0.0000   -0.0000         -1.3787    0.0002   -0.0014    2.7567   -0.0001   -1.3780
MDC-d         0.0000       -0.0001    0.0000    0.0000         -0.7658   -0.0002    0.0073    1.5640    0.0001   -0.7981
MDC-q         0.0000       -0.0001    0.0000    0.0000          2.9122   -0.0002    0.0052   -5.8139    0.0001    2.9016
 
Fit.Dens.     0.0000       -0.0001    0.0000    0.0000          2.9122   -0.0002    0.0044   -5.8139    0.0001    2.9016



 =============
 Dipole Moment  ***  (Debye)  ***
 =============
  
 Vector   :        -0.00005270     -0.00000003      0.00002501
 Magnitude:         0.00005834

 This molecular dipole moment is calculated with analytic integration



 =========================================
 Quadrupole Moment (Buckingham convention)  ***  (a.u.)  ***
 =========================================
  
      quad-xx        quad-xy        quad-xz        quad-yy        quad-yz        quad-zz
      2.92367220    -0.00023492     0.00264555    -5.84225190     0.00011147     2.91857970

 This molecular quadrupole moment is calculated with analytic integration
1



 =======================================================
 S F O   P O P U L A T I O N S ,   M O   A N A L Y S I S
 =======================================================
  
 A Mulliken population analysis is performed on (input-)selected MOs. All populations refer to SFOs.
 BAS populations may have been printed directly after the SCF part.


                                       === A ===


 SFO contributions (%) per orbital
 (multiplication by the orbital occupation yields the SFO Gross Populations)

 Orb.:       12     13     14     15     16     17     18     19     20     21     22     23     24     25
 occup:     2.00   2.00   2.00   2.00   2.00   2.00   2.00   2.00   2.00   2.00   0.00   0.00   0.00   0.00
 CF+SFO     ----   ----   ----   ----   ----   ----   ----   ----   ----   ----   ----   ----   ----   ----
 ------
      2:    0.24   4.05   0.00   0.00   0.03   0.00  -0.00  -0.06   0.00  -0.00   0.00   0.00  -0.24   0.01
      3:   -0.08   0.11   0.00  -0.00  -0.18   0.00  -0.00  -0.02  -0.00   0.00   0.00  -0.00  -2.69  -0.11
      6:    0.01   0.00  14.45   0.44  -0.00  -0.00   8.98   0.22   0.00  -0.00   0.00  -0.00   0.00  -1.72
      7:    0.00   0.00   1.99   0.67   0.00   0.00   2.97   0.08   0.00  -0.00  -0.00  -0.00  -0.00  -8.02
      9:    0.00  -0.00  -0.00   0.00  -0.00  17.22  -0.00  -0.00   0.24  31.52   0.37  34.12   0.00   0.00
     10:    0.00   0.00  -0.00   0.00  -0.00  -0.98  -0.00  -0.00   0.00   0.11  -0.04  -3.80  -0.00   0.00
     12:   10.71   2.58   0.01   0.30  17.51   0.00   0.16   5.71  -0.00   0.00  -0.00  -0.00   0.73   0.15
     13:    0.23   0.28   0.00   0.01   1.25   0.00   0.05   1.42  -0.00  -0.00  -0.00   0.00  -0.51  -1.77
     17:    0.00   0.00  -0.00  -0.00  -0.00   0.00  -0.00  -0.00   0.60   0.00   1.12   0.01  -0.00  -0.00
     21:    0.23   4.03   0.00   0.03   0.01   0.00  -0.06  -0.01  -0.00   0.00  -0.00  -0.00  -0.24   0.01
     22:   -0.08   0.11   0.00  -0.16  -0.03   0.00  -0.02  -0.00  -0.00  -0.00   0.00   0.00  -2.69  -0.21
     25:    7.82   1.94   3.88  10.10   2.97   0.00   6.43   0.33   0.00  -0.00  -0.00   0.00   0.53  -0.75
     26:    0.17   0.21   0.53   0.24   0.86  -0.00   1.96  -0.06   0.00  -0.00  -0.00  -0.00  -0.37  -8.85
     28:    0.00   0.00   0.00  -0.00   0.00  17.22   0.00   0.00  26.10   5.67  22.60  11.89   0.00  -0.00
     29:    0.00   0.00   0.00  -0.00   0.00  -0.98   0.00   0.00   0.09   0.02  -2.52  -1.32  -0.00  -0.00
     31:    2.88   0.71  10.60   5.12  -0.07  -0.00  -0.10   8.39   0.00   0.00   0.00  -0.00   0.20  -0.38
     32:    0.06   0.07   1.46   0.93  -0.11   0.00  -0.27   2.89  -0.00   0.00  -0.00   0.00  -0.14  -1.17
     40:    0.24   4.04   0.00   0.02   0.02   0.00  -0.04  -0.02   0.00   0.00  -0.00   0.00  -0.24   0.04
     41:   -0.08   0.11   0.00  -0.12  -0.07   0.00  -0.01  -0.01   0.00   0.00  -0.00  -0.00  -2.70  -0.61
     44:    8.22   2.02   3.35   7.28   6.45  -0.00   6.79  -0.15  -0.00  -0.00  -0.00   0.00   0.56   0.46
     45:    0.17   0.22   0.46  -0.09   1.21  -0.00   2.19  -0.35  -0.00   0.00  -0.00   0.00  -0.39  -9.26
     47:   -0.00  -0.00  -0.00   0.00  -0.00  17.22  -0.00  -0.00  21.31  10.46  28.76   5.73   0.00   0.00
     48:   -0.00   0.00  -0.00   0.00   0.00  -0.98  -0.00  -0.00   0.08   0.04  -3.20  -0.64  -0.00  -0.00
     50:    2.49   0.60  11.13   4.02   0.40  -0.00   0.34   8.09  -0.00   0.00  -0.00   0.00   0.17   0.26
     51:    0.05   0.06   1.53   1.13  -0.32   0.00  -0.12   2.80  -0.00   0.00  -0.00   0.00  -0.12  -1.78
     59:    0.24   4.05   0.00   0.00   0.03  -0.00  -0.00  -0.06   0.00  -0.00   0.00   0.00  -0.24   0.01
     60:   -0.08   0.11   0.00  -0.00  -0.18   0.00  -0.00  -0.02   0.00  -0.00   0.00   0.00  -2.69  -0.11
     63:    0.01   0.00  14.45   0.44  -0.00   0.00   8.98   0.22  -0.00   0.00   0.00  -0.00   0.00  -1.72
     64:    0.00   0.00   1.99   0.67   0.00  -0.00   2.97   0.08  -0.00   0.00   0.00   0.00  -0.00  -8.02
     66:    0.00   0.00   0.00  -0.00   0.00  17.22   0.00   0.00   0.24  31.52   0.37  34.12   0.00   0.00
     67:    0.00   0.00   0.00  -0.00   0.00  -0.98   0.00   0.00   0.00   0.11  -0.04  -3.80  -0.00   0.00
     69:   10.71   2.58   0.01   0.30  17.51  -0.00   0.16   5.71  -0.00  -0.00   0.00   0.00   0.73   0.15
     70:    0.23   0.28   0.00   0.01   1.25  -0.00   0.05   1.42  -0.00  -0.00   0.00   0.00  -0.51  -1.77
     74:    0.00   0.00  -0.00  -0.00   0.00   0.00   0.00   0.00   0.60   0.00   1.12   0.01  -0.00  -0.00
     78:    0.24   4.03   0.00   0.03   0.01   0.00  -0.06  -0.01   0.00   0.00  -0.00   0.00  -0.24   0.01
     79:   -0.08   0.11   0.00  -0.16  -0.03   0.00  -0.02  -0.00   0.00   0.00  -0.00   0.00  -2.69  -0.20
     82:    7.83   1.94   3.88  10.11   2.97  -0.00   6.43   0.33  -0.00   0.00   0.00  -0.00   0.53  -0.75
     83:    0.17   0.21   0.53   0.24   0.86   0.00   1.96  -0.06  -0.00  -0.00  -0.00   0.00  -0.37  -8.85
     85:    0.00  -0.00  -0.00   0.00  -0.00  17.22  -0.00  -0.00  26.10   5.67  22.60  11.89   0.00  -0.00
     86:   -0.00  -0.00  -0.00   0.00   0.00  -0.98  -0.00  -0.00   0.09   0.02  -2.52  -1.32  -0.00  -0.00
     88:    2.88   0.71  10.60   5.12  -0.07   0.00  -0.10   8.39   0.00   0.00   0.00   0.00   0.20  -0.38
     89:    0.06   0.07   1.46   0.93  -0.11   0.00  -0.27   2.89   0.00  -0.00  -0.00  -0.00  -0.13  -1.17
     97:    0.24   4.04   0.00   0.02   0.02   0.00  -0.04  -0.02  -0.00   0.00   0.00  -0.00  -0.24   0.04
     98:   -0.08   0.11   0.00  -0.12  -0.07   0.00  -0.01  -0.01   0.00   0.00  -0.00  -0.00  -2.70  -0.61
    101:    8.21   2.02   3.35   7.28   6.45  -0.00   6.79  -0.15  -0.00   0.00  -0.00   0.00   0.56   0.46
    102:    0.17   0.22   0.46  -0.09   1.21   0.00   2.19  -0.35   0.00   0.00  -0.00  -0.00  -0.39  -9.26
    104:   -0.00   0.00   0.00  -0.00   0.00  17.22   0.00   0.00  21.31  10.46  28.76   5.73   0.00  -0.00
    105:    0.00   0.00   0.00  -0.00   0.00  -0.98   0.00   0.00   0.08   0.04  -3.20  -0.64  -0.00   0.00
    107:    2.49   0.60  11.14   4.02   0.40  -0.00   0.34   8.09  -0.00  -0.00  -0.00  -0.00   0.17   0.26
    108:    0.05   0.06   1.53   1.13  -0.32  -0.00  -0.12   2.80   0.00  -0.00  -0.00   0.00  -0.12  -1.79
    115:    5.54   9.20   0.00  11.05   1.86   0.00  11.44   1.88   0.00   0.00   0.00   0.00   7.80   7.30
    116:   -0.02   0.16  -0.00   0.13   0.02   0.00  -0.17  -0.03   0.00   0.00   0.00   0.00  11.27  10.86
    121:    5.54   9.16   0.00   8.15   4.80   0.00   8.29   5.03   0.00   0.00   0.00  -0.00   7.81  21.79
    122:   -0.02   0.16   0.00   0.10   0.06  -0.00  -0.12  -0.07   0.00  -0.00  -0.00  -0.00  11.28  32.39
    125:    0.00   0.00   0.00  -0.00   0.00   0.25   0.00  -0.00   0.56   0.27   1.14   0.23  -0.00  -0.00
    127:    5.52   9.09   0.00   0.23  12.77   0.00   0.26  13.08   0.00   0.00  -0.00   0.00   7.81   3.85
    128:   -0.02   0.16  -0.00   0.00   0.16  -0.00  -0.00  -0.19   0.00   0.00  -0.00   0.00  11.28   5.73
    131:   -0.00  -0.00  -0.00   0.00  -0.00   0.25   0.00   0.00   0.01   0.83   0.01   1.35   0.00  -0.00
    133:    5.54   9.19   0.00  11.05   1.86   0.00  11.44   1.88   0.00   0.00   0.00   0.00   7.80   7.30
    134:   -0.02   0.16  -0.00   0.13   0.02  -0.00  -0.17  -0.03   0.00   0.00   0.00   0.00  11.27  10.85
    139:    5.54   9.16   0.00   8.14   4.80   0.00   8.29   5.04   0.00  -0.00   0.00   0.00   7.82  21.79
    140:   -0.02   0.16   0.00   0.10   0.06   0.00  -0.12  -0.07   0.00  -0.00   0.00   0.00  11.29  32.38
    143:   -0.00  -0.00  -0.00   0.00  -0.00   0.25  -0.00   0.00   0.56   0.27   1.14   0.23   0.00   0.00
    145:    5.52   9.09   0.00   0.23  12.77  -0.00   0.25  13.08   0.00  -0.00   0.00  -0.00   7.81   3.85
    146:   -0.02   0.16  -0.00   0.00   0.16  -0.00  -0.00  -0.19   0.00   0.00  -0.00  -0.00  11.28   5.72
    149:    0.00   0.00   0.00  -0.00   0.00   0.25   0.00  -0.00   0.01   0.83   0.01   1.35   0.00  -0.00


 Summation over all MOs, multiplied by occupation: Total SFO Gross Populations in this Irrep
 ===========================================================================================

     2.00    1.07   -0.01   -0.00   -0.00    0.84    0.07   -0.01    0.98   -0.02   -0.00    0.81
     0.03   -0.01    0.02    0.01    0.01    0.02    0.00    2.00    1.07   -0.01   -0.00   -0.00
     0.82    0.04   -0.01    0.98   -0.02   -0.00    0.83    0.06   -0.01    0.02    0.01    0.01
     0.02    0.01    2.00    1.07   -0.01   -0.00   -0.00    0.82    0.04   -0.01    0.98   -0.02
    -0.00    0.83    0.06   -0.01    0.02    0.01    0.01    0.02    0.01    2.00    1.07   -0.01
    -0.00   -0.00    0.84    0.07   -0.01    0.98   -0.02   -0.00    0.81    0.03   -0.01    0.02
     0.01    0.01    0.02    0.00    2.00    1.07   -0.01   -0.00   -0.00    0.82    0.04   -0.01
     0.98   -0.02   -0.00    0.83    0.06   -0.01    0.02    0.01    0.01    0.02    0.01    2.00
     1.07   -0.01   -0.00   -0.00    0.82    0.04   -0.01    0.98   -0.02   -0.00    0.83    0.06
    -0.01    0.02    0.01    0.01    0.02    0.01    1.11   -0.00   -0.00    0.03    0.02    0.02
     1.11   -0.00   -0.00    0.03    0.02    0.02    1.11   -0.00   -0.00    0.02    0.02    0.03
     1.11   -0.00   -0.00    0.03    0.02    0.02    1.11   -0.00   -0.00    0.03    0.02    0.02
     1.11   -0.00   -0.00    0.02    0.02    0.03



 List of all MOs, ordered by energy, with the most significant SFO gross populations
 ===================================================================================

 Each percentage contribution in the table below corresponds to the indicated SFO.
 In general, a SFO may be a linear combination of several Fragment Orbitals on the same,
 or on symmetry-related Fragments. Only the first 'member' of such a combination is
 specified here. A full definition of all SFOs is given in an earlier part of the output.
 The numbering of the SFOs in this table does NOT include the Core Orbitals, and starts
 from one for each symmetry representation, as in the SFO definition list earlier.

       E(eV)  Occ       MO           %     SFO (first member)   E(eV)  Occ   Fragment
 -------------------------------------------------------------------------------------

     -21.377  2.00     7 A         14.60%     2 S             -13.876  2.00     2 C
                                   14.60%     2 S             -13.876  2.00     5 C
                                   14.60%     2 S             -13.876  2.00     1 C
                                   14.60%     2 S             -13.876  2.00     4 C
                                   14.60%     2 S             -13.876  2.00     6 C
                                   14.60%     2 S             -13.876  2.00     3 C
                                    2.36%     1 P:z            -5.403  0.67     1 C
                                    2.36%     1 P:z            -5.403  0.67     4 C
                                    1.81%     1 P:x            -5.403  0.67     6 C
                                    1.81%     1 P:x            -5.403  0.67     3 C
                                    1.73%     1 P:x            -5.403  0.67     5 C
                                    1.73%     1 P:x            -5.403  0.67     2 C
                                    1.24%     1 S              -6.626  1.00     7 H
                                    1.24%     1 S              -6.626  1.00    10 H
                                    1.24%     1 S              -6.626  1.00     8 H
                                    1.24%     1 S              -6.626  1.00    11 H
                                    1.24%     1 S              -6.626  1.00    12 H
                                    1.24%     1 S              -6.626  1.00     9 H
     -18.614  2.00     8 A         20.70%     2 S             -13.876  2.00     5 C
                                   20.70%     2 S             -13.876  2.00     2 C
                                   13.04%     2 S             -13.876  2.00     6 C
                                   13.04%     2 S             -13.876  2.00     3 C
                                    5.50%     1 P:x            -5.403  0.67     4 C
                                    5.50%     1 P:x            -5.403  0.67     1 C
                                    5.10%     1 S              -6.626  1.00    10 H
                                    5.10%     1 S              -6.626  1.00     7 H
                                    3.21%     1 S              -6.626  1.00     8 H
                                    3.21%     1 S              -6.626  1.00    11 H
                                    2.33%     1 P:z            -5.403  0.67     6 C
                                    2.33%     1 P:z            -5.403  0.67     3 C
                                   -1.63%     2 P:x             4.709  0.00     4 C
                                   -1.63%     2 P:x             4.709  0.00     1 C
     -18.611  2.00     9 A         22.20%     2 S             -13.876  2.00     1 C
                                   22.20%     2 S             -13.876  2.00     4 C
                                   10.04%     2 S             -13.876  2.00     3 C
                                   10.04%     2 S             -13.876  2.00     6 C
                                    5.46%     1 S              -6.626  1.00    12 H
                                    5.46%     1 S              -6.626  1.00     9 H
                                    3.46%     1 P:z            -5.403  0.67     2 C
                                    3.46%     1 P:z            -5.403  0.67     5 C
                                    2.48%     1 S              -6.626  1.00     8 H
[...]
 CRIT   1.62081148138789     
 iter.  6 V(1) measure  0.9126806975326E+05
        6        delta  0.7740856890610E+01
 CRIT  0.629192374833448     
 iter.  7 V(1) measure  0.9126448063646E+05
        7        delta  0.3589116796604E+01
 CRIT  7.691006272996023E-002
 iter.  8 V(1) measure  0.9126405318739E+05
        8        delta  0.4274490711105E+00
 CRIT  8.753660158582488E-002
 iter.  9 V(1) measure  0.9126364571372E+05
        9        delta  0.4074736725015E+00
 CRIT  1.449878552267170E-002
 iter. 10 V(1) measure  0.9126361973889E+05
       10        delta  0.2597482877900E-01
 *** convergence reached

    RRIJmat_z_z         
    using first order VWN potential
 
    NOTE: We will NOT use the GGA kernel (input option ALDA was set)
 
 CRIT   1.00000000000000     
 iter.  1 V(1) measure  0.1312210772085E+04
 *** convergence criterion : .1312211E-02
 CRIT   157.781744492641     
 iter.  2 V(1) measure  0.1080074122539E+04
        2        delta  0.2321366495462E+03
 CRIT   60.3067910613960     
 iter.  3 V(1) measure  0.1116050961198E+04
        3        delta  0.3597683865875E+02
 CRIT   16.5238537313859     
 iter.  4 V(1) measure  0.1121696303183E+04
        4        delta  0.5645341984649E+01
 CRIT   3.75338949106294     
 iter.  5 V(1) measure  0.1122607833277E+04
        5        delta  0.9115300941598E+00
 CRIT   1.60849965233784     
 iter.  6 V(1) measure  0.1122707936897E+04
        6        delta  0.1001036203747E+00
 CRIT  0.220843657986284     
 iter.  7 V(1) measure  0.1122705878040E+04
        7        delta  0.2058857274505E-02
 CRIT  4.472574872551401E-002
 iter.  8 V(1) measure  0.1122704173905E+04
        8        delta  0.1704134813053E-02
 CRIT  6.082436801162802E-002
 iter.  9 V(1) measure  0.1122701749804E+04
        9        delta  0.2424100773624E-02
 CRIT  4.716487532246212E-003
 iter. 10 V(1) measure  0.1122701853170E+04
       10        delta  0.1033654955336E-03
 *** convergence reached
 ------------------------------------------
 Convergence acceleration: T
 QUADRUPOLE-QUADRUPOLE POLARIZABILITY     
 Frequency  =  0.1322975682     Hartrees
 Wavelength =   344.4005294     nm
 Wavenumber =   29035.96001     cm^{-1}
 Energy     =   3.600000000     eV
 ------------------------------------------
 QUADRUPOLE-QUADRUPOLE Polarizability tensor:
 
 xx xx     4195.87516067530     
 xx xy    0.136838319032842     
 xx xz   -0.194921954945398     
 xx yy    -4997.91309466972     
 xx yz   -4.781508718953908E-002
 xx zz     802.037933994386     
 xy xx    0.137578673927727     
 xy xy     12620.5101074059     
 xy xz   -0.105187493952931     
 xy yy   -4.563161512335667E-002
 xy yz   -0.670922998245895     
 xy zz   -9.194705877687445E-002
 xz xx   -0.195420732739452     
 xz xy   -0.105361593582161     
 xz xz     1697.56237846921     
 xz yy    0.148705975919512     
 xz yz    1.832785551562048E-002
 xz zz    4.671475682997325E-002
 yy xx    -4998.05885596543     
 yy xy    0.478143274368872     
 yy xz    0.130473760006557     
 yy yy     9996.30399869381     
 yy yz   -0.239712518663267     
 yy zz    -4998.24514272838     
 yz xx   -4.809451647962559E-002
 yz xy   -0.702821280247354     
 yz xz    1.823704478659860E-002
 yz yy    2.674856534317804E-002
 yz yz     12619.8950426137     
 yz zz    2.134595111767756E-002
 zz xx     802.048336365444     
 zz xy   -9.003226244147956E-002
 zz xz    5.309410403717618E-002
 zz yy    -4998.23525566605     
 zz yz    2.076173642669055E-002
 zz zz     4196.18691930060     
 
 Imaginary QUADRUPOLE-QUADRUPOLE Polarizability tensor:
 
 xx xx     18.7693753892030     
 xx xy    2.042100924055342E-003
 xx xz   -1.884866781411204E-003
 xx yy    -21.6337496092434     
 xx yz   -1.275418209263673E-003
 xx zz     2.86437422004015     
 xy xx    1.215000538107514E-003
 xy xy     125.885622718474     
 xy xz   -1.111906755026854E-003
 xy yy   -6.805016892625593E-004
 xy yz   -1.690906472884948E-003
 xy zz   -5.344988489995930E-004
 xz xx   -1.724932902901579E-003
 xz xy   -1.186307919407224E-003
 xz xz     7.95845930406161     
 xz yy    1.219193235508661E-003
 xz yz    1.156878602074922E-004
 xz zz    5.057396673871468E-004
 yy xx    -21.5900529627155     
 yy xy    0.124676802881035     
 yy xz    5.079295735331735E-004
 yy yy     43.1761265660228     
 yy yz   -6.222167831465712E-002
 yy zz    -21.5860736033072     
 yz xx   -8.767699332607216E-004
 yz xy   -1.286339431716519E-003
 yz xz    1.261518981675921E-004
 yz yy    4.409068111553317E-004
 yz yz     125.855555965794     
 yz zz    4.358631224158447E-004
 zz xx     2.86311819922111     
 zz xy   -4.068172941365506E-003
 zz xz    5.853659161458771E-004
 zz yy    -21.6352965698973     
 zz yz    2.223220084742913E-003
 zz zz     18.7721783706762     



 =======================================================================
 Electrostatic potential at the Nuclei due to electrons and other nuclei
 =======================================================================
  
         Atom                  Potential
         ----                  ---------
     1)   C                  14.76840015
     2)   C                  14.76829832
     3)   C                  14.76825533
     4)   C                  14.76840005
     5)   C                  14.76829680
     6)   C                  14.76824480
     7)   H                   1.10091605
     8)   H                   1.10100295
     9)   H                   1.10139573
    10)   H                   1.10091432
    11)   H                   1.10099371
    12)   H                   1.10139477
 
 
 ========================
 No memory problems found
 ========================
 
 Maximum number of active allocate calls:        1279
 
 *******************************************************************************

                             A D F   E X I T
 NORMAL TERMINATION



 =================
 Timing Statistics
 =================
  
 Total Used :                     CPU=       41.15      System=        0.79     Elapsed=       42.47

 Calls  Section                     ( Mean, Percentage )
 ---------------------------------------------------------------------------------------------------
     3  ><      ................      0.00    0.01             0.00    0.00             0.00    0.01
     1  INIT    ................      0.55    1.33             0.01    1.02             0.57    1.33
     1  GEOMET  ................      0.04    0.09             0.01    1.27             0.05    0.12
     1  FRAGM   ................      0.01    0.03             0.02    2.53             0.03    0.08
     1  INPUTA  ................      0.00    0.01             0.00    0.00             0.00    0.01
     1  ATDEN   ................      0.00    0.00             0.00    0.50             0.00    0.01
     1  MAINSY  ................      0.04    0.09             0.00    0.50             0.04    0.10
     1  SYMFIT  ................      0.01    0.02             0.00    0.01             0.01    0.02
     1  CORORT  ................      0.00    0.00             0.00    0.01             0.00    0.00
     1  SYMORB  ................      0.00    0.01             0.00    0.00             0.00    0.01
     1  CLSMAT  ................      0.01    0.03             0.00    0.00             0.01    0.03
     1  ORTHON  ................      0.02    0.04             0.00    0.00             0.02    0.04
     1  GENPT   ................      0.12    0.29             0.00    0.48             0.13    0.30
     1  PTBAS   ................      0.09    0.22             0.00    0.04             0.09    0.22
    13  FOCKY   ................      0.28    8.98             0.01    8.85             0.29    8.99
    13  FOCKTR  ................      0.00    0.09             0.00    0.45             0.00    0.10
    13  SDIIS   ................      0.00    0.15             0.00    0.67             0.01    0.16
     1  COREPS  ................      0.22    0.54             0.00    0.50             0.23    0.53
     1  TOTEN   ................      1.01    2.46             0.03    3.24             1.05    2.47
     1  POPAN   ................      0.00    0.01             0.00    0.34             0.01    0.02
     1  DEBYE   ................      0.01    0.03             0.00    0.50             0.02    0.04
     1  INPUTE  ................      0.00    0.00             0.00    0.00             0.00    0.00
     1  SYMORE  ................      0.00    0.00             0.00    0.01             0.00    0.00
     1  METS    ................      0.00    0.00             0.00    0.00             0.00    0.00
     1  CETS    ................      0.01    0.03             0.00    0.00             0.01    0.03
     1  ELNRGY  ................      0.01    0.03             0.00    0.00             0.01    0.03
     1  POPUL   ................      0.01    0.03             0.00    0.00             0.01    0.03
     1  AORESPONSE .............     35.16   85.43             0.61   77.66            36.21   85.26
     1  EXIT PROCEDURE .........      0.02    0.04             0.01    1.43             0.03    0.07


 Currently Open Files (EXIT00)
 ====================

 Unit    Access Format  Status   Type       Ident (file)
 -------------------------------------------------------
   3      SEQ    FORM   TRANSP  NORMAL      LOGFILE
                                          ( logfile )

 ***************************************************************************************************
 (LOGFILE)
 <Sep29-2020> <15:40:49>  ADF 2019  RunTime: Sep29-2020 15:40:49  Nodes: 1  Procs: 1
 <Sep29-2020> <15:40:49>  Hydrogen (TZP)
 <Sep29-2020> <15:40:49>  RunType   : CREATE
 <Sep29-2020> <15:40:49>  Net Charge: 0 (Nuclei minus Electrons)
 <Sep29-2020> <15:40:49>  Symmetry  : ATOM
  Coordinates
    Atom         X           Y           Z   (Angstrom)
    1.H         0.000000    0.000000    0.000000
 <Sep29-2020> <15:40:49>  >>>> CORORT
 <Sep29-2020> <15:40:49>  >>>> CLSMAT
 <Sep29-2020> <15:40:49>  >>>> ORTHON
 <Sep29-2020> <15:40:49>  >>>> GENPT
 <Sep29-2020> <15:40:49>  Block Length=  64
 <Sep29-2020> <15:40:49>  >>>> PTBAS
 <Sep29-2020> <15:40:49>  >>>> CYCLE
 <Sep29-2020> <15:40:49>              |Error|         MaxErr       Wt(A-DIIS)
 <Sep29-2020> <15:40:49>      1      0.00000000      0.00000000
 <Sep29-2020> <15:40:49>      2      0.03052909      0.02968459
 <Sep29-2020> <15:40:49>      3      0.00718138      0.00670742    100.0
 <Sep29-2020> <15:40:49>      4      0.00117303      0.00114116      0.1
 <Sep29-2020> <15:40:49>      5      0.00002783      0.00002380      0.0
 <Sep29-2020> <15:40:49>      6      0.00000153      0.00000130      0.0
 <Sep29-2020> <15:40:49>      7      0.00000000      0.00000000      0.0
 <Sep29-2020> <15:40:49>  SCF converged
 <Sep29-2020> <15:40:49>      8      0.00000000      0.00000000      0.0
 <Sep29-2020> <15:40:49>  >>>> POPAN
 <Sep29-2020> <15:40:49>  >>>> DEBYE
 <Sep29-2020> <15:40:49>  NORMAL TERMINATION
 <Sep29-2020> <15:40:49>  END
 <Sep29-2020> <15:40:50>  ADF 2019  RunTime: Sep29-2020 15:40:50  Nodes: 1  Procs: 1
 <Sep29-2020> <15:40:50>  Carbon (TZP)
 <Sep29-2020> <15:40:50>  RunType   : CREATE
 <Sep29-2020> <15:40:50>  Net Charge: 0 (Nuclei minus Electrons)
 <Sep29-2020> <15:40:50>  Symmetry  : ATOM
  Coordinates
    Atom         X           Y           Z   (Angstrom)
    1.C         0.000000    0.000000    0.000000
 <Sep29-2020> <15:40:50>  >>>> CORORT
 <Sep29-2020> <15:40:50>  >>>> CLSMAT
 <Sep29-2020> <15:40:50>  >>>> ORTHON
 <Sep29-2020> <15:40:50>  >>>> GENPT
 <Sep29-2020> <15:40:50>  Block Length=  72
 <Sep29-2020> <15:40:50>  >>>> PTBAS
 <Sep29-2020> <15:40:50>  >>>> CYCLE
 <Sep29-2020> <15:40:50>              |Error|         MaxErr       Wt(A-DIIS)
 <Sep29-2020> <15:40:50>      1      0.00000000      0.00000000
 <Sep29-2020> <15:40:50>      2      4.48324754      3.31969244    100.0
 <Sep29-2020> <15:40:50>      3      1.61537707      1.30410194    100.0
 <Sep29-2020> <15:40:50>      4      0.72706284      0.59053131    100.0
 <Sep29-2020> <15:40:50>      5      0.40898688      0.33263800    100.0
 <Sep29-2020> <15:40:50>      6      0.13548919      0.10594416    100.0
 <Sep29-2020> <15:40:50>      7      0.11406432      0.09088019     90.8
 <Sep29-2020> <15:40:50>      8      0.01170325      0.00926551      8.3
 <Sep29-2020> <15:40:50>      9      0.00078015      0.00061791      0.0
 <Sep29-2020> <15:40:50>     10      0.00000178      0.00000107      0.0
 <Sep29-2020> <15:40:50>     11      0.00000024      0.00000019      0.0
 <Sep29-2020> <15:40:50>     12      0.00000000      0.00000000      0.0
 <Sep29-2020> <15:40:50>  SCF converged
 <Sep29-2020> <15:40:50>     13      0.00000000      0.00000000      0.0
 <Sep29-2020> <15:40:50>  >>>> POPAN
 <Sep29-2020> <15:40:50>  >>>> DEBYE
 <Sep29-2020> <15:40:50>  NORMAL TERMINATION
 <Sep29-2020> <15:40:50>  END
 <Sep29-2020> <15:40:51>  ADF 2019  RunTime: Sep29-2020 15:40:51  Nodes: 1  Procs: 6
 <Sep29-2020> <15:40:51>  None
 <Sep29-2020> <15:40:51>  RunType   : SINGLE POINT
 <Sep29-2020> <15:40:51>  Net Charge: 0 (Nuclei minus Electrons)
 <Sep29-2020> <15:40:51>  Symmetry  : NOSYM
 <Sep29-2020> <15:40:51>  >>>> FRAGM
  Coordinates
    Atom         X           Y           Z   (Angstrom)
    1.C         0.029732    4.000000   -1.400066
    2.C        -1.198249    4.000000   -0.726057
    3.C        -1.227986    4.000000    0.674404
    4.C        -0.029732    4.000000    1.400061
    5.C         1.198254    4.000000    0.726057
    6.C         1.227975    4.000000   -0.674404
    7.H        -2.131449    4.000000   -1.292336
    8.H        -2.184497    4.000000    1.200567
    9.H        -0.053026    4.000000    2.491688
   10.H         2.131465    4.000000    1.292320
   11.H         2.184587    4.000000   -1.200567
   12.H         0.052942    4.000000   -2.491693
 <Sep29-2020> <15:40:51>  >>>> CORORT
 <Sep29-2020> <15:40:51>  >>>> CLSMAT
 <Sep29-2020> <15:40:51>  >>>> ORTHON
 <Sep29-2020> <15:40:51>  >>>> GENPT
 <Sep29-2020> <15:40:51>  Block Length= 128
 <Sep29-2020> <15:40:52>  >>>> PTBAS
 <Sep29-2020> <15:40:52>  >>>> CYCLE
 <Sep29-2020> <15:40:52>              |Error|         MaxErr       Wt(A-DIIS)
 <Sep29-2020> <15:40:52>      1      5.97475264      0.97912666
 <Sep29-2020> <15:40:52>      2      0.88911954      0.18635788    100.0
 <Sep29-2020> <15:40:53>      3      0.51967111      0.10219699    100.0
 <Sep29-2020> <15:40:53>      4      0.74003066      0.17187586    100.0
 <Sep29-2020> <15:40:53>      5      0.07573017      0.01056476      9.7
 <Sep29-2020> <15:40:54>      6      0.01060714      0.00166553      0.7
 <Sep29-2020> <15:40:54>      7      0.00113029      0.00026951      0.0
 <Sep29-2020> <15:40:54>      8      0.00033346      0.00008090      0.0
 <Sep29-2020> <15:40:54>      9      0.00015773      0.00003888      0.0
 <Sep29-2020> <15:40:55>     10      0.00000587      0.00000137      0.0
 <Sep29-2020> <15:40:55>     11      0.00000820      0.00000198      0.0
 <Sep29-2020> <15:40:55>     12      0.00000020      0.00000004      0.0
 <Sep29-2020> <15:40:55>  SCF converged
 <Sep29-2020> <15:40:56>     13      0.00000011      0.00000002      0.0
 <Sep29-2020> <15:40:56>  >>>> TOTEN
 <Sep29-2020> <15:40:57>  >>>> POPAN
 <Sep29-2020> <15:40:57>  >>>> DEBYE
 <Sep29-2020> <15:40:57>  >>>> AMETS
 <Sep29-2020> <15:40:57>  >>>> POPUL
 <Sep29-2020> <15:40:57>     1 V(1)  0.1881311E+04
 <Sep29-2020> <15:40:58>     2 V(1)  0.1607970E+04
 <Sep29-2020> <15:40:58>     3 V(1)  0.1589691E+04
 <Sep29-2020> <15:40:58>     4 V(1)  0.1596333E+04
 <Sep29-2020> <15:40:59>     5 V(1)  0.1598322E+04
 <Sep29-2020> <15:40:59>     6 V(1)  0.1598195E+04
 <Sep29-2020> <15:41:00>     7 V(1)  0.1598144E+04
 <Sep29-2020> <15:41:00>     8 V(1)  0.1598138E+04
 <Sep29-2020> <15:41:00>     9 V(1)  0.1598133E+04
 <Sep29-2020> <15:41:01>    10 V(1)  0.1598133E+04
 <Sep29-2020> <15:41:01>   convergence reached
 <Sep29-2020> <15:41:01>     1 V(1)  0.2539447E+02
 <Sep29-2020> <15:41:02>     2 V(1)  0.2332417E+02
 <Sep29-2020> <15:41:02>     3 V(1)  0.2331831E+02
 <Sep29-2020> <15:41:02>     4 V(1)  0.2331758E+02
 <Sep29-2020> <15:41:03>     5 V(1)  0.2331747E+02
 <Sep29-2020> <15:41:03>     6 V(1)  0.2331749E+02
 <Sep29-2020> <15:41:03>   convergence reached
 <Sep29-2020> <15:41:04>     1 V(1)  0.1879085E+04
 <Sep29-2020> <15:41:04>     2 V(1)  0.1605957E+04
 <Sep29-2020> <15:41:04>     3 V(1)  0.1587730E+04
 <Sep29-2020> <15:41:05>     4 V(1)  0.1594360E+04
 <Sep29-2020> <15:41:05>     5 V(1)  0.1596348E+04
 <Sep29-2020> <15:41:06>     6 V(1)  0.1596235E+04
 <Sep29-2020> <15:41:06>     7 V(1)  0.1596171E+04
 <Sep29-2020> <15:41:06>     8 V(1)  0.1596165E+04
 <Sep29-2020> <15:41:07>     9 V(1)  0.1596160E+04
 <Sep29-2020> <15:41:07>    10 V(1)  0.1596159E+04
 <Sep29-2020> <15:41:07>   convergence reached
 <Sep29-2020> <15:41:08>     1 V(1)  0.1312554E+04
 <Sep29-2020> <15:41:08>     2 V(1)  0.1080254E+04
 <Sep29-2020> <15:41:09>     3 V(1)  0.1116244E+04
 <Sep29-2020> <15:41:09>     4 V(1)  0.1121891E+04
 <Sep29-2020> <15:41:09>     5 V(1)  0.1122798E+04
 <Sep29-2020> <15:41:10>     6 V(1)  0.1122896E+04
 <Sep29-2020> <15:41:10>     7 V(1)  0.1122898E+04
 <Sep29-2020> <15:41:11>     8 V(1)  0.1122895E+04
 <Sep29-2020> <15:41:11>     9 V(1)  0.1122893E+04
 <Sep29-2020> <15:41:12>    10 V(1)  0.1122892E+04
 <Sep29-2020> <15:41:12>   convergence reached
 <Sep29-2020> <15:41:12>     1 V(1)  0.1079214E+06
 <Sep29-2020> <15:41:13>     2 V(1)  0.9157982E+05
 <Sep29-2020> <15:41:13>     3 V(1)  0.9063040E+05
 <Sep29-2020> <15:41:14>     4 V(1)  0.9126766E+05
 <Sep29-2020> <15:41:14>     5 V(1)  0.9138860E+05
 <Sep29-2020> <15:41:14>     6 V(1)  0.9138002E+05
 <Sep29-2020> <15:41:15>     7 V(1)  0.9137715E+05
 <Sep29-2020> <15:41:15>     8 V(1)  0.9137676E+05
 <Sep29-2020> <15:41:16>     9 V(1)  0.9137636E+05
 <Sep29-2020> <15:41:16>    10 V(1)  0.9137634E+05
 <Sep29-2020> <15:41:16>   convergence reached
 <Sep29-2020> <15:41:16>     1 V(1)  0.6238620E+03
 <Sep29-2020> <15:41:17>     2 V(1)  0.4762222E+03
 <Sep29-2020> <15:41:17>     3 V(1)  0.4903437E+03
 <Sep29-2020> <15:41:17>     4 V(1)  0.4915259E+03
 <Sep29-2020> <15:41:18>     5 V(1)  0.4920655E+03
 <Sep29-2020> <15:41:18>     6 V(1)  0.4920737E+03
 <Sep29-2020> <15:41:18>     7 V(1)  0.4920770E+03
 <Sep29-2020> <15:41:19>     8 V(1)  0.4920762E+03
 <Sep29-2020> <15:41:19>     9 V(1)  0.4920747E+03
 <Sep29-2020> <15:41:20>    10 V(1)  0.4920745E+03
 <Sep29-2020> <15:41:20>   convergence reached
 <Sep29-2020> <15:41:20>     1 V(1)  0.2752318E+04
 <Sep29-2020> <15:41:21>     2 V(1)  0.2511254E+04
 <Sep29-2020> <15:41:22>     3 V(1)  0.2524004E+04
 <Sep29-2020> <15:41:22>     4 V(1)  0.2524397E+04
 <Sep29-2020> <15:41:23>     5 V(1)  0.2524398E+04
 <Sep29-2020> <15:41:23>   convergence reached
 <Sep29-2020> <15:41:24>     1 V(1)  0.1077941E+06
 <Sep29-2020> <15:41:24>     2 V(1)  0.9146522E+05
 <Sep29-2020> <15:41:25>     3 V(1)  0.9051864E+05
 <Sep29-2020> <15:41:25>     4 V(1)  0.9115499E+05
 <Sep29-2020> <15:41:26>     5 V(1)  0.9127581E+05
 <Sep29-2020> <15:41:27>     6 V(1)  0.9126807E+05
 <Sep29-2020> <15:41:27>     7 V(1)  0.9126448E+05
 <Sep29-2020> <15:41:28>     8 V(1)  0.9126405E+05
 <Sep29-2020> <15:41:28>     9 V(1)  0.9126365E+05
 <Sep29-2020> <15:41:29>    10 V(1)  0.9126362E+05
 <Sep29-2020> <15:41:29>   convergence reached
 <Sep29-2020> <15:41:29>     1 V(1)  0.1312211E+04
 <Sep29-2020> <15:41:29>     2 V(1)  0.1080074E+04
 <Sep29-2020> <15:41:30>     3 V(1)  0.1116051E+04
 <Sep29-2020> <15:41:30>     4 V(1)  0.1121696E+04
 <Sep29-2020> <15:41:31>     5 V(1)  0.1122608E+04
 <Sep29-2020> <15:41:31>     6 V(1)  0.1122708E+04
 <Sep29-2020> <15:41:32>     7 V(1)  0.1122706E+04
 <Sep29-2020> <15:41:32>     8 V(1)  0.1122704E+04
 <Sep29-2020> <15:41:33>     9 V(1)  0.1122702E+04
 <Sep29-2020> <15:41:33>    10 V(1)  0.1122702E+04
 <Sep29-2020> <15:41:33>   convergence reached
 <Sep29-2020> <15:41:33>  NORMAL TERMINATION
 <Sep29-2020> <15:41:33>  END
