

 Parallel Execution: Process Information
 ==============================================================================
 Rank   Node Name                              NodeID   MyNodeRank  NodeMaster
    0   magnesium.science.psu.edu                 0          0          0
    1   magnesium.science.psu.edu                 0          1         -1
    2   magnesium.science.psu.edu                 0          2         -1
    3   magnesium.science.psu.edu                 0          3         -1
    4   magnesium.science.psu.edu                 0          4         -1
    5   magnesium.science.psu.edu                 0          5         -1
 ==============================================================================


May use up to 7495MB of RAM as shared memory on node 0
 
TITLE None

ATOMS
1  C     0.02954658    4.00000000   -1.39860529
2  C    -1.19692064    4.00000000   -0.72542168
3  C    -1.22662593    4.00000000    0.67382697
4  C    -0.02985871    4.00000000    1.39859471
5  C     1.19707936    4.00000000    0.72517303
6  C     1.22677407    4.00000000   -0.67356774
7  H    -2.12899430    4.00000000   -1.29330932
8  H    -2.18206837    4.00000000    1.20167281
9  H    -0.05518494    4.00000000    2.49005239
10 H     2.13123215    4.00000000    1.28964306
11 H     2.18424221    4.00000000   -1.19791132
12 H     0.05074680    4.00000000   -2.49014761
END

XC
 gga BP86
end

symmetry nosym

aoresponse
 alda
 frequency 1 3.6 eV
 lifetime 0.0037
 El_Dipole_El_Dipole
 El_Dipole_El_Quadrupole
 El_Quadrupole_El_Quadrupole
 Traceless
end

Fragments
H t21.H
C t21.C
End

 *******************************************************************************
 *                                                                             *
 *  -------------------------------------                                      *
 *   Amsterdam Density Functional  (ADF)         2019                          *
 *  -------------------------------------                                      *
 *                                               r75281 2019-06-03             *
 *                                                                             *
 *                                                                             *
 *                              =================                              *
 *                              |               |                              *
 *                              |     A D F     |                              *
 *                              |               |                              *
 *                              =================                              *
 *                                                                             *
 *                                                                             *
 *   Online information and documentation:  https://www.scm.com/support/       *
 *   E-mail:  support@scm.com   info@scm.com                                   *
 *                                                                             *
 *   Scientific publications using ADF results must be properly referenced     *
 *   See the User Manuals (or the web site) for recommended citations          *
 *   The terms and conditions of the End User License Agreement apply to       *
 *   the use of ADF, https://www.scm.com/license-terms/                        *
 *                                                                             *
 **********************  x86_64_linux_intel / intelmpi  ************************
 
 Licensed to: Prof. Lasse Jensen / Penn State University / University Park / PA  / USA
 SCM User ID: u8493
  
 ADF 2019  RunTime: Sep29-2020 15:14:40  Nodes: 1  Procs: 6

 Temporary files are created in /scratch/kid_0.778476052


Communication costs MPI_COMM_WORLD:      0.531 usec per message,   0.0069 usec per 8-byte item
Communication costs for intra-node:      0.548 usec per message,   0.0068 usec per 8-byte item

 None



 ===========================
 A T T A C H E D   F I L E S
 ===========================
  



 ===============================
 M O D E L   P A R A M E T E R S
 ===============================
  
 DENSITY FUNCTIONAL POTENTIAL (scf)
    LDA:                               VWN                                      
    Gradient Corrections:              Becke88 Perdew86                        == Not Default ==

 SPIN  (restricted / unrestr.)
    Molecule:                          Restricted                               
    Fragments:                         Restricted                               

 OTHER ASPECTS
    Relativistic Corrections:          ---                                      

    Nuclear Charge Density Model:      Point Charge Nuclei                      
    Core Treatment:                    Frozen Orbital(s)                        

    Hyperfine or Zeeman Interaction:   ---                                      


 Fragment File(s)
 ----------------
 C:
         file : t21.C
         jobid: ADF 2019  RunTime: Sep29-2020 15:14:39  Nodes: 1  Procs: 1
         title: Carbon (TZP)
 H:
         file : t21.H
         jobid: ADF 2019  RunTime: Sep29-2020 15:14:38  Nodes: 1  Procs: 1
         title: Hydrogen (TZP)



                                        ************************************
                                        *  R U N   T Y P E : SINGLE POINT  *
                                        ************************************
  



 ===============
 G E O M E T R Y  ***  Planar Molecule  ***
 ===============
  

 ATOMS
 =====                            X Y Z                    CHARGE
                                (Angstrom)             Nucl     +Core       At.Mass
                       --------------------------    ----------------       -------
    1  C               0.0295    4.0000   -1.3986      6.00      6.00       12.0000
    2  C              -1.1969    4.0000   -0.7254      6.00      6.00       12.0000
    3  C              -1.2266    4.0000    0.6738      6.00      6.00       12.0000
    4  C              -0.0299    4.0000    1.3986      6.00      6.00       12.0000
    5  C               1.1971    4.0000    0.7252      6.00      6.00       12.0000
    6  C               1.2268    4.0000   -0.6736      6.00      6.00       12.0000
    7  H              -2.1290    4.0000   -1.2933      1.00      1.00        1.0078
    8  H              -2.1821    4.0000    1.2017      1.00      1.00        1.0078
    9  H              -0.0552    4.0000    2.4901      1.00      1.00        1.0078
   10  H               2.1312    4.0000    1.2896      1.00      1.00        1.0078
   11  H               2.1842    4.0000   -1.1979      1.00      1.00        1.0078
   12  H               0.0507    4.0000   -2.4901      1.00      1.00        1.0078


 FRAGMENTS
 =========                                     Atoms in this Fragment     Cart. coord.s (Angstrom)
                                               -------------------------------------------------------
    1  C                                                 1  C            0.0295    4.0000   -1.3986
    2  C                                                 2  C           -1.1969    4.0000   -0.7254
    3  C                                                 3  C           -1.2266    4.0000    0.6738
    4  C                                                 4  C           -0.0299    4.0000    1.3986
    5  C                                                 5  C            1.1971    4.0000    0.7252
    6  C                                                 6  C            1.2268    4.0000   -0.6736
    7  H                                                 7  H           -2.1290    4.0000   -1.2933
    8  H                                                 8  H           -2.1821    4.0000    1.2017
    9  H                                                 9  H           -0.0552    4.0000    2.4901
   10  H                                                10  H            2.1312    4.0000    1.2896
   11  H                                                11  H            2.1842    4.0000   -1.1979
   12  H                                                12  H            0.0507    4.0000   -2.4901


 Interatomic Distance Matrix (Angstrom)
 --------------------------------------

   1)     0.000
   2)     1.399   0.000
   3)     2.423   1.400   0.000
   4)     2.798   2.424   1.399   0.000
   5)     2.424   2.799   2.424   1.400   0.000
   6)     1.400   2.424   2.799   2.423   1.399   0.000
   7)     2.161   1.091   2.164   3.414   3.891   3.413   0.000
   8)     3.414   2.164   1.092   2.161   3.413   3.891   2.496   0.000
   9)     3.890   3.412   2.161   1.092   2.164   3.413   4.314   2.487   0.000
  10)     3.412   3.891   3.414   2.164   1.091   2.162   4.982   4.314   2.494   0.000
  11)     2.164   3.414   3.891   3.412   2.162   1.092   4.314   4.982   4.315   2.488
          0.000
  12)     1.092   2.161   3.412   3.890   3.414   2.164   2.487   4.315   4.981   4.315
          2.494   0.000

 Min. Distance =    1.0914
 Max. Distance =    4.9822



 =====================================
 S Y M M E T R Y ,   E L E C T R O N S
 =====================================
  
 Symmetry: NOSYM

 Irreducible Representations, including subspecies
 -------------------------------------------------
 A


 Configuration of Valence Electrons
 ==================================
 ( determined in the SCF procedure )

 Total:   42

 Net Charge: 0 (Nuclei minus Electrons)

 Aufbau principle for MO occupations will be applied through SCF cycle no.     150
 Thereafter, the program will assign electrons to MOs that are spatially
 similar to the occupied MOs in a "reference" cycle ("KeepOrbitals").
 The reference cycle is always the PREVIOUS cycle: it will evolve with
 the SCF procedure.
1
 ***************************************************************************************************



                                      ****************************************
                                      *  B U I L D : (Fragments, Functions)  *
                                      ****************************************
  



 =======
 S F O s  ***  (Symmetrized Fragment Orbitals)  ***
 =======
  
 SFOs are linear combinations of (valence) Fragment Orbitals (FOs), such that the SFOs transform as the
 irreducible representations of the (molecular) symmetry group. Each SFO is therefore characterized by
 an irrep of the molecule and by a few (or only one) generating FOs.
 The SFOs constitute a symmetry-adapted basis for the Fock matrix. The MO eigenvector coefficients in
 this basis provide a direct interpretation of the MOs in terms of Frontier Orbital Theory.

 The SFOs are combined with auxiliary Core Functions (CFs) to ensure orthogonalization on the (frozen)
 Core Orbitals (COs). The Core-orthogonalized SFOs (CSFOs) constitute the true Fock basis.

 The FOs, and hence also the (C)SFOs are combinations of the elementary basis functions (BAS). The basis
 functions that participate in the description of the SFOs depend on the irrep. The indices of the
 involved functions are printed below for each irrep.
 (The complete list of primitive basis functions is printed in another section)

 Total nr. of (C)SFOs (summation over all irreps) :   150

 NOTE: a (C)SFO that is defined as a combination of more than one FO is usually NOT normalized.



                                       === A ===
 Nr. of SFOs :  150
 Cartesian basis functions that participate in this irrep (total number =   156) :
      1     2     3     4     5     6     9    12     7    10
     13     8    11    14    15    16    17    18    19    20
     21    22    23    24    25    26    29    32    27    30
     33    28    31    34    35    36    37    38    39    40
     41    42    43    44    45    46    49    52    47    50
     53    48    51    54    55    56    57    58    59    60
     61    62    63    64    65    66    69    72    67    70
     73    68    71    74    75    76    77    78    79    80
     81    82    83    84    85    86    89    92    87    90
     93    88    91    94    95    96    97    98    99   100
    101   102   103   104   105   106   109   112   107   110
    113   108   111   114   115   116   117   118   119   120
    121   122   123   124   125   126   127   128   129   130
    131   132   133   134   135   136   137   138   139   140
    141   142   143   144   145   146   147   148   149   150
    151   152   153   154   155   156

    SFO  (index         Fragment          Generating    Expansion in Fragment Orbitals
  indx  incl.CFs)   Occup   Orb.Energy   FragmentType  Coeff.   Orbital     on Fragment
 --------------------------------------------------------------------------------------
     1       1      2.000     -10.058 au  C             1.00      1 S               1
                        (    -273.681 eV)
     2       2      2.000      -0.510 au  C             1.00      2 S               1
                        (     -13.876 eV)
     3       3       --         0.371 au  C             1.00      3 S               1
                        (      10.091 eV)
     4       4       --         5.428 au  C             1.00      4 S               1
                        (     147.707 eV)
     5       5       --        50.181 au  C             1.00      5 S               1
                        (    1365.486 eV)
     6       6      0.667      -0.199 au  C             1.00      1 P:x             1
                        (      -5.403 eV)
     7       7       --         0.173 au  C             1.00      2 P:x             1
                        (       4.709 eV)
     8       8       --         2.026 au  C             1.00      3 P:x             1
                        (      55.143 eV)
     9       9      0.667      -0.199 au  C             1.00      1 P:y             1
                        (      -5.403 eV)
    10      10       --         0.173 au  C             1.00      2 P:y             1
                        (       4.709 eV)
    11      11       --         2.026 au  C             1.00      3 P:y             1
                        (      55.143 eV)
    12      12      0.667      -0.199 au  C             1.00      1 P:z             1
                        (      -5.403 eV)
    13      13       --         0.173 au  C             1.00      2 P:z             1
                        (       4.709 eV)
    14      14       --         2.026 au  C             1.00      3 P:z             1
                        (      55.143 eV)
    15      15       --         1.232 au  C             1.00      1 D:z2            1
                        (      33.528 eV)
    16      16       --         1.232 au  C             1.00      1 D:x2-y2         1
                        (      33.528 eV)
    17      17       --         1.232 au  C             1.00      1 D:xy            1
                        (      33.528 eV)
    18      18       --         1.232 au  C             1.00      1 D:xz            1
                        (      33.528 eV)
    19      19       --         1.232 au  C             1.00      1 D:yz            1
                        (      33.528 eV)
    20      20      2.000     -10.058 au  C             1.00      1 S               2
                        (    -273.681 eV)
    21      21      2.000      -0.510 au  C             1.00      2 S               2
                        (     -13.876 eV)
    22      22       --         0.371 au  C             1.00      3 S               2
                        (      10.091 eV)
    23      23       --         5.428 au  C             1.00      4 S               2
                        (     147.707 eV)
    24      24       --        50.181 au  C             1.00      5 S               2
                        (    1365.486 eV)
    25      25      0.667      -0.199 au  C             1.00      1 P:x             2
                        (      -5.403 eV)
    26      26       --         0.173 au  C             1.00      2 P:x             2
                        (       4.709 eV)
    27      27       --         2.026 au  C             1.00      3 P:x             2
                        (      55.143 eV)
    28      28      0.667      -0.199 au  C             1.00      1 P:y             2
                        (      -5.403 eV)
    29      29       --         0.173 au  C             1.00      2 P:y             2
                        (       4.709 eV)
    30      30       --         2.026 au  C             1.00      3 P:y             2
                        (      55.143 eV)
    31      31      0.667      -0.199 au  C             1.00      1 P:z             2
                        (      -5.403 eV)
    32      32       --         0.173 au  C             1.00      2 P:z             2
                        (       4.709 eV)
    33      33       --         2.026 au  C             1.00      3 P:z             2
                        (      55.143 eV)
    34      34       --         1.232 au  C             1.00      1 D:z2            2
                        (      33.528 eV)
    35      35       --         1.232 au  C             1.00      1 D:x2-y2         2
                        (      33.528 eV)
    36      36       --         1.232 au  C             1.00      1 D:xy            2
                        (      33.528 eV)
    37      37       --         1.232 au  C             1.00      1 D:xz            2
                        (      33.528 eV)
    38      38       --         1.232 au  C             1.00      1 D:yz            2
                        (      33.528 eV)
    39      39      2.000     -10.058 au  C             1.00      1 S               3
                        (    -273.681 eV)
    40      40      2.000      -0.510 au  C             1.00      2 S               3
                        (     -13.876 eV)
    41      41       --         0.371 au  C             1.00      3 S               3
                        (      10.091 eV)
    42      42       --         5.428 au  C             1.00      4 S               3
                        (     147.707 eV)
    43      43       --        50.181 au  C             1.00      5 S               3
                        (    1365.486 eV)
    44      44      0.667      -0.199 au  C             1.00      1 P:x             3
                        (      -5.403 eV)
    45      45       --         0.173 au  C             1.00      2 P:x             3
                        (       4.709 eV)
    46      46       --         2.026 au  C             1.00      3 P:x             3
                        (      55.143 eV)
    47      47      0.667      -0.199 au  C             1.00      1 P:y             3
                        (      -5.403 eV)
    48      48       --         0.173 au  C             1.00      2 P:y             3
                        (       4.709 eV)
    49      49       --         2.026 au  C             1.00      3 P:y             3
                        (      55.143 eV)
    50      50      0.667      -0.199 au  C             1.00      1 P:z             3
                        (      -5.403 eV)
    51      51       --         0.173 au  C             1.00      2 P:z             3
                        (       4.709 eV)
    52      52       --         2.026 au  C             1.00      3 P:z             3
                        (      55.143 eV)
    53      53       --         1.232 au  C             1.00      1 D:z2            3
                        (      33.528 eV)
    54      54       --         1.232 au  C             1.00      1 D:x2-y2         3
                        (      33.528 eV)
    55      55       --         1.232 au  C             1.00      1 D:xy            3
                        (      33.528 eV)
    56      56       --         1.232 au  C             1.00      1 D:xz            3
                        (      33.528 eV)
    57      57       --         1.232 au  C             1.00      1 D:yz            3
                        (      33.528 eV)
    58      58      2.000     -10.058 au  C             1.00      1 S               4
                        (    -273.681 eV)
    59      59      2.000      -0.510 au  C             1.00      2 S               4
                        (     -13.876 eV)
    60      60       --         0.371 au  C             1.00      3 S               4
                        (      10.091 eV)
    61      61       --         5.428 au  C             1.00      4 S               4
                        (     147.707 eV)
    62      62       --        50.181 au  C             1.00      5 S               4
                        (    1365.486 eV)
    63      63      0.667      -0.199 au  C             1.00      1 P:x             4
                        (      -5.403 eV)
    64      64       --         0.173 au  C             1.00      2 P:x             4
                        (       4.709 eV)
    65      65       --         2.026 au  C             1.00      3 P:x             4
                        (      55.143 eV)
    66      66      0.667      -0.199 au  C             1.00      1 P:y             4
                        (      -5.403 eV)
    67      67       --         0.173 au  C             1.00      2 P:y             4
                        (       4.709 eV)
    68      68       --         2.026 au  C             1.00      3 P:y             4
                        (      55.143 eV)
    69      69      0.667      -0.199 au  C             1.00      1 P:z             4
                        (      -5.403 eV)
    70      70       --         0.173 au  C             1.00      2 P:z             4
                        (       4.709 eV)
    71      71       --         2.026 au  C             1.00      3 P:z             4
                        (      55.143 eV)
    72      72       --         1.232 au  C             1.00      1 D:z2            4
                        (      33.528 eV)
    73      73       --         1.232 au  C             1.00      1 D:x2-y2         4
                        (      33.528 eV)
    74      74       --         1.232 au  C             1.00      1 D:xy            4
                        (      33.528 eV)
    75      75       --         1.232 au  C             1.00      1 D:xz            4
                        (      33.528 eV)
    76      76       --         1.232 au  C             1.00      1 D:yz            4
                        (      33.528 eV)
    77      77      2.000     -10.058 au  C             1.00      1 S               5
                        (    -273.681 eV)
    78      78      2.000      -0.510 au  C             1.00      2 S               5
                        (     -13.876 eV)
    79      79       --         0.371 au  C             1.00      3 S               5
                        (      10.091 eV)
    80      80       --         5.428 au  C             1.00      4 S               5
                        (     147.707 eV)
    81      81       --        50.181 au  C             1.00      5 S               5
                        (    1365.486 eV)
    82      82      0.667      -0.199 au  C             1.00      1 P:x             5
                        (      -5.403 eV)
    83      83       --         0.173 au  C             1.00      2 P:x             5
                        (       4.709 eV)
    84      84       --         2.026 au  C             1.00      3 P:x             5
                        (      55.143 eV)
    85      85      0.667      -0.199 au  C             1.00      1 P:y             5
                        (      -5.403 eV)
    86      86       --         0.173 au  C             1.00      2 P:y             5
                        (       4.709 eV)
    87      87       --         2.026 au  C             1.00      3 P:y             5
                        (      55.143 eV)
    88      88      0.667      -0.199 au  C             1.00      1 P:z             5
                        (      -5.403 eV)
    89      89       --         0.173 au  C             1.00      2 P:z             5
                        (       4.709 eV)
    90      90       --         2.026 au  C             1.00      3 P:z             5
                        (      55.143 eV)
    91      91       --         1.232 au  C             1.00      1 D:z2            5
                        (      33.528 eV)
    92      92       --         1.232 au  C             1.00      1 D:x2-y2         5
                        (      33.528 eV)
    93      93       --         1.232 au  C             1.00      1 D:xy            5
                        (      33.528 eV)
    94      94       --         1.232 au  C             1.00      1 D:xz            5
                        (      33.528 eV)
    95      95       --         1.232 au  C             1.00      1 D:yz            5
                        (      33.528 eV)
    96      96      2.000     -10.058 au  C             1.00      1 S               6
                        (    -273.681 eV)
    97      97      2.000      -0.510 au  C             1.00      2 S               6
                        (     -13.876 eV)
    98      98       --         0.371 au  C             1.00      3 S               6
                        (      10.091 eV)
    99      99       --         5.428 au  C             1.00      4 S               6
                        (     147.707 eV)
   100     100       --        50.181 au  C             1.00      5 S               6
                        (    1365.486 eV)
   101     101      0.667      -0.199 au  C             1.00      1 P:x             6
                        (      -5.403 eV)
   102     102       --         0.173 au  C             1.00      2 P:x             6
                        (       4.709 eV)
   103     103       --         2.026 au  C             1.00      3 P:x             6
                        (      55.143 eV)
   104     104      0.667      -0.199 au  C             1.00      1 P:y             6
                        (      -5.403 eV)
   105     105       --         0.173 au  C             1.00      2 P:y             6
                        (       4.709 eV)
   106     106       --         2.026 au  C             1.00      3 P:y             6
                        (      55.143 eV)
   107     107      0.667      -0.199 au  C             1.00      1 P:z             6
                        (      -5.403 eV)
   108     108       --         0.173 au  C             1.00      2 P:z             6
                        (       4.709 eV)
   109     109       --         2.026 au  C             1.00      3 P:z             6
                        (      55.143 eV)
   110     110       --         1.232 au  C             1.00      1 D:z2            6
                        (      33.528 eV)
   111     111       --         1.232 au  C             1.00      1 D:x2-y2         6
                        (      33.528 eV)
   112     112       --         1.232 au  C             1.00      1 D:xy            6
                        (      33.528 eV)
   113     113       --         1.232 au  C             1.00      1 D:xz            6
                        (      33.528 eV)
   114     114       --         1.232 au  C             1.00      1 D:yz            6
                        (      33.528 eV)
   115     115      1.000      -0.244 au  H             1.00      1 S               7
                        (      -6.626 eV)
   116     116       --         0.093 au  H             1.00      2 S               7
                        (       2.536 eV)
   117     117       --         1.515 au  H             1.00      3 S               7
                        (      41.236 eV)
   118     118       --         0.400 au  H             1.00      1 P:x             7
                        (      10.872 eV)
   119     119       --         0.400 au  H             1.00      1 P:y             7
                        (      10.872 eV)
   120     120       --         0.400 au  H             1.00      1 P:z             7
                        (      10.872 eV)
   121     121      1.000      -0.244 au  H             1.00      1 S               8
                        (      -6.626 eV)
   122     122       --         0.093 au  H             1.00      2 S               8
                        (       2.536 eV)
   123     123       --         1.515 au  H             1.00      3 S               8
                        (      41.236 eV)
   124     124       --         0.400 au  H             1.00      1 P:x             8
                        (      10.872 eV)
   125     125       --         0.400 au  H             1.00      1 P:y             8
                        (      10.872 eV)
   126     126       --         0.400 au  H             1.00      1 P:z             8
                        (      10.872 eV)
   127     127      1.000      -0.244 au  H             1.00      1 S               9
                        (      -6.626 eV)
   128     128       --         0.093 au  H             1.00      2 S               9
                        (       2.536 eV)
   129     129       --         1.515 au  H             1.00      3 S               9
                        (      41.236 eV)
   130     130       --         0.400 au  H             1.00      1 P:x             9
                        (      10.872 eV)
   131     131       --         0.400 au  H             1.00      1 P:y             9
                        (      10.872 eV)
   132     132       --         0.400 au  H             1.00      1 P:z             9
                        (      10.872 eV)
   133     133      1.000      -0.244 au  H             1.00      1 S              10
                        (      -6.626 eV)
   134     134       --         0.093 au  H             1.00      2 S              10
                        (       2.536 eV)
   135     135       --         1.515 au  H             1.00      3 S              10
                        (      41.236 eV)
   136     136       --         0.400 au  H             1.00      1 P:x            10
                        (      10.872 eV)
   137     137       --         0.400 au  H             1.00      1 P:y            10
                        (      10.872 eV)
   138     138       --         0.400 au  H             1.00      1 P:z            10
                        (      10.872 eV)
   139     139      1.000      -0.244 au  H             1.00      1 S              11
                        (      -6.626 eV)
   140     140       --         0.093 au  H             1.00      2 S              11
                        (       2.536 eV)
   141     141       --         1.515 au  H             1.00      3 S              11
                        (      41.236 eV)
   142     142       --         0.400 au  H             1.00      1 P:x            11
                        (      10.872 eV)
   143     143       --         0.400 au  H             1.00      1 P:y            11
                        (      10.872 eV)
   144     144       --         0.400 au  H             1.00      1 P:z            11
                        (      10.872 eV)
   145     145      1.000      -0.244 au  H             1.00      1 S              12
                        (      -6.626 eV)
   146     146       --         0.093 au  H             1.00      2 S              12
                        (       2.536 eV)
   147     147       --         1.515 au  H             1.00      3 S              12
                        (      41.236 eV)
   148     148       --         0.400 au  H             1.00      1 P:x            12
                        (      10.872 eV)
   149     149       --         0.400 au  H             1.00      1 P:y            12
                        (      10.872 eV)
   150     150       --         0.400 au  H             1.00      1 P:z            12
                        (      10.872 eV)



 ================================
 (Slater-type)  F U N C T I O N S  ***  (Basis and Fit)  ***
 ================================
  

 Atom Type    1  (C)
 ==============

 Valence Basis Sets:   9
 -----------------------
   1 S    7.680000
   1 S    5.000000
   2 S    1.280000
   2 S    2.100000
   2 S    4.600000
   2 P    0.820000
   2 P    1.480000
   2 P    2.940000
   3 D    2.200000

 Atom Type    2  (H)
 ==============

 Valence Basis Sets:   4
 -----------------------
   1 S    0.690000
   1 S    0.920000
   1 S    1.580000
   2 P    1.250000


 BAS: List of all Elementary Cartesian Basis Functions
 =====================================================

 The numbering in the list below (to the right of the function characteristics) is referred
 to in print-outs of MO eigenvectors and Mulliken populations in the BAS representation
 (as contrasted to the SFO representation).

 Notes:
 1. The functions are characterized by a polynomial prefactor (powers of x,y,z and r) and
    an exponential decay factor alpha.
 2. Since the basis sets are specific for an atom TYPE, the individual functions occur on
    all atoms of that type.
 3. The word 'Core' in the left margin signals that it is a Core Function (CF) : not a
    degree of freedom in the valence set, but only used to ensure orthogonalization of
    the other valence basis functions on the frozen Core Orbitals.


 (power of) X  Y  Z  R     Alpha  on Atom
            ==========     =====     ==========

 C                                    1    2    3    4    5    6
                                  ---------------------------------------------------------------------------
            0  0  0  0     7.680      1   21   41   61   81  101
            0  0  0  0     5.000      2   22   42   62   82  102
            0  0  0  1     1.280      3   23   43   63   83  103
            0  0  0  1     2.100      4   24   44   64   84  104
            0  0  0  1     4.600      5   25   45   65   85  105
            1  0  0  0     0.820      6   26   46   66   86  106
            0  1  0  0     0.820      7   27   47   67   87  107
            0  0  1  0     0.820      8   28   48   68   88  108
            1  0  0  0     1.480      9   29   49   69   89  109
            0  1  0  0     1.480     10   30   50   70   90  110
            0  0  1  0     1.480     11   31   51   71   91  111
            1  0  0  0     2.940     12   32   52   72   92  112
            0  1  0  0     2.940     13   33   53   73   93  113
            0  0  1  0     2.940     14   34   54   74   94  114
            2  0  0  0     2.200     15   35   55   75   95  115
            1  1  0  0     2.200     16   36   56   76   96  116
            1  0  1  0     2.200     17   37   57   77   97  117
            0  2  0  0     2.200     18   38   58   78   98  118
            0  1  1  0     2.200     19   39   59   79   99  119
            0  0  2  0     2.200     20   40   60   80  100  120

 H                                    7    8    9   10   11   12
                                  ---------------------------------------------------------------------------
            0  0  0  0     0.690    121  127  133  139  145  151
            0  0  0  0     0.920    122  128  134  140  146  152
            0  0  0  0     1.580    123  129  135  141  147  153
            1  0  0  0     1.250    124  130  136  142  148  154
            0  1  0  0     1.250    125  131  137  143  149  155
            0  0  1  0     1.250    126  132  138  144  150  156

 Total number of charge fitting functions (nprimf)       804
 Total number of Cartesian basis functions (naos)        156
 Total number of Cartesian core functions  (ncos)          0

1
 ***************************************************************************************************



                                              ***********************
                                              *  T E C H N I C A L  *
                                              ***********************
  



 =============================================================
 P A R A L L E L I Z A T I O N  and  V E C T O R I Z A T I O N
 =============================================================
  
 Nr of parallel processes:                                6
 Maximum vector length in NumInt loops:                 128



 =====================
 S C F   U P D A T E S
 =====================
  
 Max. nr. of cycles:                               300
 Convergence criterion:                              0.0000010000
   secondary criterion:                              0.0010000000

 Mix parameter (when DIIS does not apply):           0.2000000000
 Mixed ADIIS+SDIIS will be used                  
    Max number of expansion vectors:                10
    Pure ADIIS when Max([F,P]) is above              0.1000000000
    Pure SDIIS when Max([F,P]) is below              0.0010000000
 Automatic ElectronSmearing (in case of problematic SCF convergence) disabled



 =================
 P R E C I S I O N  ***  (General: NumInt, NeglectFunctionTails, ...)  ***
 =================
  

 NumInt:           Target precision:                 4.0000000000
 -------           Initial precision:                4.0000000000
                   Min. precision (optimization):    4.0000000000

 Neglect Functions:          Basis functions:        0.1000000000E-13
 ------------------          Fit functions:          0.1000000000E-13



 ===========================
 L I N E A R   S C A L I N G
 ===========================
  

 Cut-off radii density fit:                        0.1000000000E-07
 Overlap cut-off criterion AO matrix elements:     0.1000000000E-05
 Cut-offs for Coulomb potential and fitted density:0.1000000000E-07
 Cut-off criterion for Coulomb multipole terms:    0.1000000000E-07
 Progressive Convergence parameter:                 0.000000000    
1
 ***************************************************************************************************



                                            ***************************
                                            *  C O M P U T A T I O N  *
                                            ***************************
  

 Number of elements of the density matrix on this node (used, total):      1962     12246



 ===========================================
 Numerical Integration : Fuzzy Cells (Becke)
 ===========================================
  
 Becke grid quality: NORMAL         
  
 Lebedev angular grid order:             min:  11 max:  23
 Nr. of radial points:                   min:  46 max:  52

 Total nr. of points:      75660
 Nr. of blocks:              592
 Block length:               128
 Nr. of dummy points:        116


 Test of Precision of the Numerical Integration Grid
 ===================================================

 Integral of the Total Core Density:                   0.00000000000000



 ========================
 Density Fitting (zlmFit)
 ========================
  
 ZlmFit Fit Quality: NORMAL         
  
 Max L-expansion:                        min:   5 max:   6
 Nr. of radial interpolation points:     min:  36 max:  48



 =====
 S C F  ***  ScaSCF  ***
 =====
  
 Initial density matrix is calculated as sum of fragments

 CYCLE    1
 SCF Error: norm([F,P])=      5.990936270587, max([F,P])=      0.980282014184
 orbitals (Q,E):
 ---------------
 A :12...31          ( 2.00    -0.6583)  ( 2.00    -0.6250)  ( 2.00    -0.5884)  ( 2.00    -0.5691)
                     ( 2.00    -0.5689)  ( 2.00    -0.5031)  ( 2.00    -0.5016)  ( 2.00    -0.5015)
                     ( 2.00    -0.4055)  ( 2.00    -0.4055)  ( 0.00    -0.2151)  ( 0.00    -0.2151)
                     ( 0.00    -0.0768)  ( 0.00    -0.0731)  ( 0.00    -0.0375)  ( 0.00    -0.0375)
                     ( 0.00    -0.0111)  ( 0.00    -0.0111)  ( 0.00     0.0270)  ( 0.00     0.0510)

 CYCLE    2
   MIX coefficients:  0.8000  0.2000
 SCF Error: norm([F,P])=      0.892325341250, max([F,P])=      0.187104672428
 orbitals (Q,E):
 ---------------
 A :12...22          ( 2.00    -0.5946)  ( 2.00    -0.5421)  ( 2.00    -0.5328)  ( 2.00    -0.5022)
                     ( 2.00    -0.5020)  ( 2.00    -0.4366)  ( 2.00    -0.4344)  ( 2.00    -0.4343)
                     ( 2.00    -0.3389)  ( 2.00    -0.3388)  ( 0.00    -0.1501)

 CYCLE    3
  SDIIS (wt  0.000): -1.2669  2.2669
 A-DIIS (wt  1.000):  0.0000  1.0000
  DIIS coefficients:  0.0000  1.0000
 SCF Error: norm([F,P])=      0.521453107347, max([F,P])=      0.102608787118
 orbitals (Q,E):
 ---------------
 A :12...22          ( 2.00    -0.3985)  ( 2.00    -0.3564)  ( 2.00    -0.2966)  ( 2.00    -0.2964)
                     ( 2.00    -0.2951)  ( 2.00    -0.2475)  ( 2.00    -0.2227)  ( 2.00    -0.2227)
                     ( 2.00    -0.1499)  ( 2.00    -0.1498)  ( 0.00     0.0285)

 CYCLE    4
  SDIIS (wt  0.000):  0.1837  0.3521  0.4642
 A-DIIS (wt  1.000):  0.0000  0.6402  0.3598
  DIIS coefficients:  0.0000  0.6402  0.3598
 SCF Error: norm([F,P])=      0.743252623200, max([F,P])=      0.172654861118
 orbitals (Q,E):
 ---------------
 A :12...22          ( 2.00    -0.4673)  ( 2.00    -0.4037)  ( 2.00    -0.3933)  ( 2.00    -0.3709)
                     ( 2.00    -0.3706)  ( 2.00    -0.3293)  ( 2.00    -0.2970)  ( 2.00    -0.2969)
                     ( 2.00    -0.2286)  ( 2.00    -0.2286)  ( 0.00    -0.0404)

 CYCLE    5
  SDIIS (wt  0.902): -0.0172  0.2159  0.0732  0.7280
 A-DIIS (wt  0.098):  0.0000  0.0000  0.0000  1.0000
  DIIS coefficients: -0.0155  0.1947  0.0660  0.7548
 SCF Error: norm([F,P])=      0.076224496913, max([F,P])=      0.010731079808
 orbitals (Q,E):
 ---------------
 A :12...22          ( 2.00    -0.4793)  ( 2.00    -0.4187)  ( 2.00    -0.4084)  ( 2.00    -0.3828)
                     ( 2.00    -0.3825)  ( 2.00    -0.3380)  ( 2.00    -0.3110)  ( 2.00    -0.3109)
                     ( 2.00    -0.2384)  ( 2.00    -0.2383)  ( 0.00    -0.0510)

 CYCLE    6
  SDIIS (wt  0.993): -0.0029  0.0315  0.0082  0.1926  0.7705
 A-DIIS (wt  0.007):  0.0000  0.0000  0.0000  0.0000  1.0000
  DIIS coefficients: -0.0028  0.0313  0.0082  0.1913  0.7721
 SCF Error: norm([F,P])=      0.010709889298, max([F,P])=      0.001696630624
 orbitals (Q,E):
 ---------------
 A :12...22          ( 2.00    -0.4790)  ( 2.00    -0.4180)  ( 2.00    -0.4073)  ( 2.00    -0.3826)
                     ( 2.00    -0.3824)  ( 2.00    -0.3374)  ( 2.00    -0.3104)  ( 2.00    -0.3103)
                     ( 2.00    -0.2377)  ( 2.00    -0.2376)  ( 0.00    -0.0502)

 CYCLE    7
  SDIIS (wt  1.000):  0.0009  0.0020  0.0002  0.0235  0.1237  0.8497
  DIIS coefficients:  0.0009  0.0020  0.0002  0.0235  0.1237  0.8497
 SCF Error: norm([F,P])=      0.001136616470, max([F,P])=      0.000274639444
 orbitals (Q,E):
 ---------------
 A :12...22          ( 2.00    -0.4791)  ( 2.00    -0.4181)  ( 2.00    -0.4075)  ( 2.00    -0.3827)
                     ( 2.00    -0.3824)  ( 2.00    -0.3376)  ( 2.00    -0.3105)  ( 2.00    -0.3104)
                     ( 2.00    -0.2379)  ( 2.00    -0.2378)  ( 0.00    -0.0504)

 CYCLE    8
  SDIIS (wt  1.000):  0.0005  0.0005  0.0000  0.0094  0.0528  0.4263  0.5105
  DIIS coefficients:  0.0005  0.0005  0.0000  0.0094  0.0528  0.4263  0.5105
 SCF Error: norm([F,P])=      0.000333752042, max([F,P])=      0.000089592201
 orbitals (Q,E):
 ---------------
 A :12...22          ( 2.00    -0.4791)  ( 2.00    -0.4181)  ( 2.00    -0.4075)  ( 2.00    -0.3827)
                     ( 2.00    -0.3825)  ( 2.00    -0.3376)  ( 2.00    -0.3105)  ( 2.00    -0.3105)
                     ( 2.00    -0.2379)  ( 2.00    -0.2378)  ( 0.00    -0.0504)

 CYCLE    9
  SDIIS (wt  1.000):  0.0001 -0.0002 -0.0000 -0.0004 -0.0004  0.0173  0.3283  0.6553
  DIIS coefficients:  0.0001 -0.0002 -0.0000 -0.0004 -0.0004  0.0173  0.3283  0.6553
 SCF Error: norm([F,P])=      0.000160715647, max([F,P])=      0.000046873480
 orbitals (Q,E):
 ---------------
 A :12...22          ( 2.00    -0.4791)  ( 2.00    -0.4181)  ( 2.00    -0.4075)  ( 2.00    -0.3827)
                     ( 2.00    -0.3825)  ( 2.00    -0.3376)  ( 2.00    -0.3105)  ( 2.00    -0.3105)
                     ( 2.00    -0.2379)  ( 2.00    -0.2378)  ( 0.00    -0.0504)

 CYCLE   10
  SDIIS (wt  1.000):  0.0001 -0.0001 -0.0000 -0.0003 -0.0006  0.0096  0.2287  0.4631  0.2996
  DIIS coefficients:  0.0001 -0.0001 -0.0000 -0.0003 -0.0006  0.0096  0.2287  0.4631  0.2996
 SCF Error: norm([F,P])=      0.000031867507, max([F,P])=      0.000008562750
 orbitals (Q,E):
 ---------------
 A :12...22          ( 2.00    -0.4791)  ( 2.00    -0.4181)  ( 2.00    -0.4075)  ( 2.00    -0.3827)
                     ( 2.00    -0.3825)  ( 2.00    -0.3376)  ( 2.00    -0.3105)  ( 2.00    -0.3105)
                     ( 2.00    -0.2379)  ( 2.00    -0.2378)  ( 0.00    -0.0504)

 CYCLE   11
  SDIIS (wt  1.000):  0.0000 -0.0000 -0.0000  0.0000 -0.0000 -0.0001 -0.0002  0.0007  0.0862  0.9133
  DIIS coefficients:  0.0000 -0.0000 -0.0000  0.0000 -0.0000 -0.0001 -0.0002  0.0007  0.0862  0.9133
 SCF Error: norm([F,P])=      0.000003220590, max([F,P])=      0.000000833375
 orbitals (Q,E):
 ---------------
 A :12...22          ( 2.00    -0.4791)  ( 2.00    -0.4181)  ( 2.00    -0.4075)  ( 2.00    -0.3827)
                     ( 2.00    -0.3825)  ( 2.00    -0.3376)  ( 2.00    -0.3105)  ( 2.00    -0.3105)
                     ( 2.00    -0.2379)  ( 2.00    -0.2378)  ( 0.00    -0.0504)

 SCF CONVERGED

 CYCLE   12
1
 ***************************************************************************************************



                                                *******************
                                                *  R E S U L T S  *
                                                *******************
  
 *** Using FIT density in Focky
  SDIIS (wt  1.000): -0.0000 -0.0000  0.0000 -0.0000 -0.0001 -0.0022 -0.0039  0.0305  0.3497  0.6260
  DIIS coefficients: -0.0000 -0.0000  0.0000 -0.0000 -0.0001 -0.0022 -0.0039  0.0305  0.3497  0.6260
 SCF Error: norm([F,P])=      0.000000275287, max([F,P])=      0.000000040601

 Orbital Energies, per Irrep and Spin:
 ======================================
                        Occup              E (au)              E (eV)       Diff (eV) with prev. cycle
                        -----      --------------------        ------       --------------------------
 A
              12        2.000     -0.47913423395446E+00       -13.038               4.09E-08
              13        2.000     -0.41810908439542E+00       -11.377               8.16E-08
              14        2.000     -0.40754920342387E+00       -11.090               3.08E-08
              15        2.000     -0.38269317811689E+00       -10.414               2.39E-08
              16        2.000     -0.38246859192402E+00       -10.407               4.70E-08
              17        2.000     -0.33758007743489E+00        -9.186              -6.43E-09
              18        2.000     -0.31054070824599E+00        -8.450               5.75E-08
              19        2.000     -0.31046320712616E+00        -8.448               4.80E-08
              20        2.000     -0.23788153129522E+00        -6.473              -1.15E-08
              21        2.000     -0.23782142499593E+00        -6.471               1.87E-08
              22        0.000     -0.50382985485209E-01        -1.371
              23        0.000     -0.50335242427682E-01        -1.370
              24        0.000      0.20338310734018E-02         0.055
              25        0.000      0.27836978782179E-01         0.757
              26        0.000      0.27862650789951E-01         0.758
              27        0.000      0.60713200036217E-01         1.652
              28        0.000      0.60762308242878E-01         1.653
              29        0.000      0.90659389925856E-01         2.467
              30        0.000      0.96118773962229E-01         2.616
              31        0.000      0.14212240245015E+00         3.867
  
 HOMO :       21 A                -0.23782142499593E+00
 LUMO :       22 A                -0.50382985485209E-01
  


 All Electron Calculation, thus no Orbital Energies of the Core Orbitals are calculated


 Fit test: (difference of exact and fit density, squared integrated, result summed over spins)
         Sum-of-Fragments:                             0.00000000048365
         Orthogonalized Fragments:                     0.00013298903261
         SCF:                                          0.00048707156124



 ==========================
 Electron Density at Nuclei
 ==========================
  
 The electron density is calculated at points on a small sphere around the center of a nucleus.
 The printed electron density is the average electron density on these points.
 The radius of the sphere is the printed approximate finite nuclear radius.

         Atom        Nuclear Radius (Angstrom)             Electron Density (a.u.)
         ----        -------------------------             -----------------------
     1)   C                 0.0000320678                              126.51442
     2)   C                 0.0000320678                              126.51571
     3)   C                 0.0000320678                              126.51466
     4)   C                 0.0000320678                              126.51440
     5)   C                 0.0000320678                              126.51569
     6)   C                 0.0000320678                              126.51460
     7)   H                 0.0000181514                                0.49874
     8)   H                 0.0000181514                                0.49869
     9)   H                 0.0000181514                                0.49864
    10)   H                 0.0000181514                                0.49874
    11)   H                 0.0000181514                                0.49864
    12)   H                 0.0000181514                                0.49864



 =======================================
 M U L L I K E N   P O P U L A T I O N S
 =======================================
  
 The survey below gives for each atom:
 a) the total charge (Z minus electrons)
 b) the net spin polarization (nr of electrons spin-A minus spin-B)
 c) for each spin the atomic electron valence density (integrated) per L-value.

 Atom              Charge    Spin density          S         P         D         F
 ----              ------    ------------       ------    ------    ------    ------
 1 C               0.1754                       3.0649    2.6987    0.0610    0.0000
 2 C               0.1757                       3.0649    2.6984    0.0610    0.0000
 3 C               0.1756                       3.0650    2.6985    0.0610    0.0000
 4 C               0.1754                       3.0649    2.6987    0.0610    0.0000
 5 C               0.1757                       3.0649    2.6984    0.0610    0.0000
 6 C               0.1755                       3.0650    2.6986    0.0610    0.0000
 7 H              -0.1759                       1.1045    0.0715    0.0000    0.0000
 8 H              -0.1757                       1.1043    0.0714    0.0000    0.0000
 9 H              -0.1750                       1.1037    0.0714    0.0000    0.0000
 10 H             -0.1759                       1.1045    0.0714    0.0000    0.0000
 11 H             -0.1756                       1.1042    0.0714    0.0000    0.0000
 12 H             -0.1750                       1.1037    0.0714    0.0000    0.0000

 Populations of individual BAS functions
 ----------------------------------------
 1 C            0.4869  1.5144  0.2298  0.8872 -0.0535 -0.1033  0.1475 -0.2378  0.8054  0.6780
                0.8823  0.2001  0.1366  0.1899  0.0268  0.0122  0.0174 -0.0175  0.0040  0.0181
 2 C            0.4870  1.5144  0.2297  0.8874 -0.0535 -0.2023  0.1473 -0.1398  0.8621  0.6781
                0.8264  0.1926  0.1366  0.1973  0.0181  0.0062  0.0220 -0.0176  0.0100  0.0222
 3 C            0.4870  1.5144  0.2298  0.8873 -0.0535 -0.2071  0.1474 -0.1346  0.8647  0.6781
                0.8235  0.1922  0.1366  0.1977  0.0179  0.0059  0.0216 -0.0175  0.0103  0.0227
 4 C            0.4869  1.5144  0.2298  0.8872 -0.0535 -0.1033  0.1475 -0.2378  0.8054  0.6780
                0.8823  0.2001  0.1366  0.1899  0.0268  0.0122  0.0174 -0.0175  0.0040  0.0181
 5 C            0.4870  1.5144  0.2297  0.8874 -0.0535 -0.2026  0.1473 -0.1394  0.8621  0.6781
                0.8264  0.1925  0.1366  0.1974  0.0181  0.0062  0.0220 -0.0175  0.0100  0.0221
 6 C            0.4870  1.5144  0.2298  0.8873 -0.0535 -0.2074  0.1474 -0.1342  0.8647  0.6781
                0.8235  0.1922  0.1366  0.1977  0.0180  0.0059  0.0216 -0.0175  0.0103  0.0227
 7 H            0.2098  0.5759  0.3188  0.0288  0.0217  0.0209
 8 H            0.2094  0.5761  0.3188  0.0294  0.0217  0.0203
 9 H            0.2086  0.5762  0.3189  0.0162  0.0217  0.0334
 10 H           0.2097  0.5759  0.3188  0.0289  0.0217  0.0208
 11 H           0.2093  0.5762  0.3188  0.0295  0.0217  0.0202
 12 H           0.2085  0.5762  0.3189  0.0162  0.0217  0.0334

 Gross Charges per Atom (Z minus electrons)
 ==========================================
             0.1754    0.1757    0.1756    0.1754    0.1757    0.1755   -0.1759   -0.1757   -0.1750   -0.1759
            -0.1756   -0.1750
 Net Total:  0.00000000


 Atom-Atom Population Matrix (off-diagonal elements not doubled)
 ===============================================================

     1 :     4.5229
     2 :     0.5417    4.5222
     3 :    -0.0106    0.5418    4.5223
     4 :    -0.0557   -0.0106    0.5418    4.5229
     5 :    -0.0106   -0.0555   -0.0107    0.5418    4.5223
     6 :     0.5419   -0.0107   -0.0555   -0.0106    0.5417    4.5224
     7 :    -0.0537    0.3939   -0.0534    0.0022    0.0041    0.0021    0.9822
     8 :     0.0022   -0.0534    0.3939   -0.0538    0.0021    0.0041   -0.0474    0.9819
     9 :     0.0041    0.0021   -0.0535    0.3939   -0.0533    0.0022   -0.0038   -0.0478    0.9808
    10 :     0.0021    0.0041    0.0022   -0.0535    0.3939   -0.0536    0.0015   -0.0038   -0.0474    0.9821
    11 :    -0.0536    0.0022    0.0041    0.0021   -0.0536    0.3939   -0.0038    0.0015   -0.0038   -0.0478
             0.9818
    12 :     0.3939   -0.0535    0.0021    0.0041    0.0022   -0.0533   -0.0478   -0.0038    0.0016   -0.0038
            -0.0474    0.9808



 =================================================
 H I R S H F E L D   C H A R G E   A N A L Y S I S
 =================================================
  
 For each fragment: the (numerical) integral of rho(scf) * rho(fragment)/rho(sum-of-fragments)
 (nuclear charges are included, electrons are counted negative)

 The fragments and their ordering are defined in the early G E O M E T R Y output section.
 If you use single-atom fragments, this usually implies that all atoms of the same
 chemical type are grouped together. This may not be the order in which you listed them
 in the input file!

    1  C                        -0.0463
    2  C                        -0.0463
    3  C                        -0.0463
    4  C                        -0.0463
    5  C                        -0.0463
    6  C                        -0.0463
    7  H                         0.0463
    8  H                         0.0463
    9  H                         0.0462
   10  H                         0.0463
   11  H                         0.0463
   12  H                         0.0462

 Sum of these charges (accuracy NumInt/Tails) =          -0.00005967



 =============================
 V O R O N O I   C H A R G E S
 =============================
  
 For each atom: the (numerical) integral of the total electronic charge density in its Voronoi cell,
 i.e. the region of space that is closer to that atom than to any other atom.
 (cf. Wigner-Seitz cells in crystals)

 Within the Voronoi cell the subintegrals over the atomic sphere and the remaining part are evaluated
 separately to give the numbers of electrons (negative charge) in these regions.
 The net total charge in the cell (including the nuclear charge) is also given.

 Values are provided for
    a) the Initial (sum-of-fragments) density
    b) the Orthogonalized-Fragments density
    c) the SCF density
    d) the Voronoi Deformation Density (VDD): the difference SCF-Initial for the complete atomic cell


  Atom                Initial                    OrthFrag                   SCF
             Sphere RestCell NetTotal   Sphere RestCell NetTotal   Sphere RestCell NetTotal      VDD
 -----       ------------------------   ------------------------   ------------------------    -----
    1 C      -2.268   -3.188    0.544   -2.452   -3.139    0.409   -2.303   -3.208    0.489   -0.055
    2 C      -2.269   -3.191    0.541   -2.452   -3.138    0.410   -2.303   -3.208    0.489   -0.052
    3 C      -2.269   -3.186    0.545   -2.452   -3.140    0.408   -2.303   -3.209    0.488   -0.057
    4 C      -2.269   -3.184    0.547   -2.452   -3.137    0.411   -2.303   -3.206    0.491   -0.056
    5 C      -2.269   -3.191    0.540   -2.452   -3.138    0.410   -2.303   -3.208    0.489   -0.051
    6 C      -2.269   -3.189    0.542   -2.452   -3.142    0.406   -2.303   -3.211    0.486   -0.056
    7 H      -0.075   -1.473   -0.548   -0.096   -1.317   -0.413   -0.109   -1.384   -0.493    0.055
    8 H      -0.075   -1.468   -0.543   -0.096   -1.312   -0.407   -0.109   -1.378   -0.487    0.056
    9 H      -0.075   -1.468   -0.543   -0.096   -1.314   -0.410   -0.109   -1.380   -0.489    0.053
   10 H      -0.075   -1.473   -0.547   -0.096   -1.317   -0.413   -0.109   -1.384   -0.492    0.055
   11 H      -0.075   -1.465   -0.539   -0.096   -1.310   -0.405   -0.109   -1.375   -0.484    0.055
   12 H      -0.075   -1.465   -0.540   -0.096   -1.312   -0.407   -0.109   -1.378   -0.487    0.053
 ---------------------------------------------------------------------------------------------------
 Total NetCharge:              -0.000                     -0.000                     -0.000    0.000
 (accuracy NumInt/Tails)

 Remark: the 'NetTotal' Voronoi charges often do not match the Mulliken and/or Hirshfeld charges very
 well. This is caused by the fact that chemically different atoms are not treated in accordance with
 their relative sizes. (Voronoi cells are defined by boundary planes halfway between the atoms.)
 However, the CHANGES in charge, comparing 'Initial' to 'SCF' for instance, do give a fair indication
 of the flow of charge caused by the relaxation from sum-of-fragments to self-consistency.

 Warning: the absolute accuracy of the VDD charges obtained using the Fuzzy Cells (Becke) integration
 scheme is much poorer than the one obtained with an 'equivalent' Voronoi integration grid. 



 =================================================================
 M U L T I P O L E   D E R I V E D   C H A R G E   A N A L Y S I S
 =================================================================

 This charge analysis uses the atomic multipoles (obtained from the fitted density) up to some level X,
 and reconstructs these multipoles exactly (up to level X) by distributing charges over all atoms.
 This is achieved by using Lagrange multipliers and a weight function to keep the multipoles local.

 Dummy atoms can be included (by setting INCDUM in MDC-block to 1) to obtain a fractional charge.
 This is generally useful and necessary only for small symmetrical molecules, when there are not
 enough degrees of freedom to reconstruct the multipoles.

 Since the atomic multipoles are reconstructed up to level X,
 the molecular multipoles are represented also up to level X.
 The recommended level is to reconstruct up to quadrupole : -> MDC-q charges.

 See: M. Swart, P.Th. van Duijnen, J.G. Snijders, J.Comput.Chem., (2001), p. 79-88.

 ------------------------------------------------------------- 
 Atomic electronic multipole moments from SCF equations (a.u.)
 ------------------------------------------------------------- 

   atom        charge        dip-x     dip-y     dip-z      quad-xx   quad-xy   quad-xz   quad-yy   quad-yz   quad-zz
 --------------------------------------------------------------------------------------------------------------------
    1 C      0.060864     0.000471  0.000000 -0.047135     0.468834 -0.000000  0.000182 -0.996626 -0.000000  0.527792
    2 C      0.060458    -0.041813  0.000000 -0.026038     0.507498 -0.000000  0.015321 -0.993831  0.000000  0.486333
    3 C      0.060594    -0.042225 -0.000000  0.023860     0.511123 -0.000000 -0.015495 -0.994883  0.000000  0.483759
    4 C      0.060866    -0.001523  0.000000  0.047117     0.468977 -0.000000 -0.001728 -0.996635  0.000000  0.527658
    5 C      0.060453     0.042328 -0.000000  0.025173     0.510017 -0.000000  0.014467 -0.993832  0.000000  0.483815
    6 C      0.060583     0.042682  0.000000 -0.022944     0.513522 -0.000000 -0.014483 -0.994876 -0.000000  0.481354
    7 H     -0.060628    -0.019276  0.000000 -0.012156     0.159822  0.000000  0.080673 -0.195365 -0.000000  0.035543
    8 H     -0.060619    -0.019664  0.000000  0.011267     0.170196  0.000000 -0.076805 -0.195666  0.000000  0.025470
    9 H     -0.060673    -0.000851  0.000000  0.022621    -0.038539  0.000000 -0.004237 -0.194894  0.000000  0.233432
   10 H     -0.060622     0.019633  0.000000  0.011557     0.160787 -0.000000  0.080347 -0.195378  0.000000  0.034591
   11 H     -0.060606     0.020014  0.000000 -0.010652     0.171119  0.000000 -0.076421 -0.195675  0.000000  0.024556
   12 H     -0.060670     0.000131  0.000000 -0.022634    -0.038590  0.000000 -0.003504 -0.194891  0.000000  0.233481

 --------------------------------------- 
 Multipole derived atomic charges (a.u.)
 --------------------------------------- 

 The MDC-m charges are just the Monopole terms in the multipole expansion, while for the MDC-d charges
 also the Dipoles are reconstructed. The usually preferred charges are the MDC-q charges.
 These reconstruct the Monopoles, Dipoles and Quadrupoles (both atomic AND molecular).

        Atom    Level:     MDC-m        MDC-d        MDC-q
 ---------------------------------------------------------
     1     C            0.060864     0.034922    -0.125990
     2     C            0.060458     0.034501    -0.127983
     3     C            0.060594     0.034655    -0.127770
     4     C            0.060866     0.034924    -0.125971
     5     C            0.060453     0.034496    -0.128125
     6     C            0.060583     0.034640    -0.127894
     7     H           -0.060628    -0.034359     0.127671
     8     H           -0.060619    -0.034629     0.127422
     9     H           -0.060673    -0.035079     0.126701
    10     H           -0.060622    -0.034361     0.127747
    11     H           -0.060606    -0.034631     0.127483
    12     H           -0.060670    -0.035080     0.126708

 ------------------------------------------------ 
 Average absolute deviations in atomic multipoles
 ------------------------------------------------ 

 Stated here are the average differences between the atomic multipoles
 and the reconstructed atomic multipoles (from the distributed charges).
 If these values are not zero, this means there are not enough degrees of freedom,
 to be able to reconstruct the atomic multipoles. (This usually happens only
 for small and/or highly symmetric molecules). If this is the case, one could add
 dummy atoms as extra point charges (and setting INCDUM in MDC-block to 1).

 Level:                                 MDC-d        MDC-q
 ---------------------------------------------------------
 Charge   (a.u.)                       0.0000       0.0000
 Dipole   (Debye)                      0.0000       0.0000
 Quad.    (a.u.)                       0.2134       0.0000

 --------------------------------------- 
 Represented molecular multipole moments
 --------------------------------------- 

 Given here are the Molecular multipole moments from the atomic charges, and from the Fit Density.
 Note that the atomic charges represent the latter, NOT the ones from the Exact density.

            Q (a.u.)             Dipole moment (Debye)                                          Quadrupole moment (a.u.)
                                 x         y         z              xx        xy        xz        yy        yz        zz
------------------------------------------------------------------------------------------------------------------------
MDC-m        -0.0000        0.0001   -0.0000   -0.0000         -1.3797    0.0005   -0.0014    2.7587   -0.0002   -1.3789
MDC-d        -0.0000       -0.0001   -0.0000    0.0000         -0.7729   -0.0006    0.0072    1.5782    0.0002   -0.8053
MDC-q        -0.0000       -0.0001   -0.0000    0.0000          2.9010   -0.0006    0.0051   -5.7910    0.0002    2.8900
 
Fit.Dens.    -0.0000       -0.0001    0.0000    0.0000          2.9010   -0.0006    0.0043   -5.7910    0.0002    2.8900



 =============
 Dipole Moment  ***  (Debye)  ***
 =============
  
 Vector   :        -0.00005255     -0.00000007      0.00000314
 Magnitude:         0.00005265

 This molecular dipole moment is calculated with analytic integration



 =========================================
 Quadrupole Moment (Buckingham convention)  ***  (a.u.)  ***
 =========================================
  
      quad-xx        quad-xy        quad-xz        quad-yy        quad-yz        quad-zz
      2.91239208    -0.00023424     0.00250170    -5.81935403     0.00001394     2.90696195

 This molecular quadrupole moment is calculated with analytic integration
1



 =======================================================
 S F O   P O P U L A T I O N S ,   M O   A N A L Y S I S
 =======================================================
  
 A Mulliken population analysis is performed on (input-)selected MOs. All populations refer to SFOs.
 BAS populations may have been printed directly after the SCF part.


                                       === A ===


 SFO contributions (%) per orbital
 (multiplication by the orbital occupation yields the SFO Gross Populations)

 Orb.:       12     13     14     15     16     17     18     19     20     21     22     23     24     25
 occup:     2.00   2.00   2.00   2.00   2.00   2.00   2.00   2.00   2.00   2.00   0.00   0.00   0.00   0.00
 CF+SFO     ----   ----   ----   ----   ----   ----   ----   ----   ----   ----   ----   ----   ----   ----
 ------
      2:    0.24   4.04   0.00   0.00   0.03  -0.00  -0.00  -0.06   0.00   0.00  -0.00  -0.00  -0.24   0.00
      3:   -0.08   0.11   0.00  -0.00  -0.18   0.00  -0.00  -0.02  -0.00   0.00  -0.00   0.00  -2.69  -0.10
      6:    0.00   0.00  14.44   0.43  -0.00  -0.00   9.02   0.16   0.00  -0.00   0.00   0.00   0.00  -1.74
      7:    0.00   0.00   2.00   0.66   0.00   0.00   3.00   0.06   0.00  -0.00  -0.00  -0.00  -0.00  -8.10
      9:   -0.00  -0.00   0.00   0.00  -0.00  17.22  -0.00   0.00   0.22  31.54   0.38  34.12  -0.00  -0.00
     10:   -0.00   0.00   0.00   0.00   0.00  -0.98  -0.00  -0.00   0.00   0.11  -0.04  -3.81   0.00  -0.00
     12:   10.70   2.58   0.00   0.30  17.50   0.00   0.12   5.75  -0.00   0.00  -0.00  -0.00   0.73   0.14
     13:    0.23   0.28   0.00   0.01   1.25   0.00   0.04   1.43  -0.00   0.00  -0.00  -0.00  -0.51  -1.63
     17:    0.00   0.00   0.00  -0.00  -0.00   0.00  -0.00   0.00   0.61   0.00   1.13   0.01  -0.00  -0.00
     21:    0.24   4.02   0.00   0.03   0.01   0.00  -0.05  -0.01  -0.00   0.00  -0.00  -0.00  -0.24   0.01
     22:   -0.08   0.11  -0.00  -0.16  -0.03   0.00  -0.02  -0.00  -0.00  -0.00   0.00   0.00  -2.69  -0.21
     25:    7.78   1.94   3.92  10.11   2.96   0.00   6.51   0.25  -0.00  -0.00  -0.00   0.00   0.53  -0.73
     26:    0.17   0.21   0.54   0.24   0.86  -0.00   2.00  -0.10  -0.00  -0.00  -0.00  -0.00  -0.37  -8.88
     28:    0.00   0.00   0.00  -0.00   0.00  17.22   0.00   0.00  25.97   5.79  22.54  11.95   0.00   0.00
     29:    0.00   0.00   0.00   0.00  -0.00  -0.98   0.00  -0.00   0.09   0.02  -2.52  -1.33   0.00   0.00
     31:    2.92   0.71  10.55   5.13  -0.07  -0.00  -0.12   8.38   0.00  -0.00   0.00  -0.00   0.19  -0.36
     32:    0.07   0.08   1.46   0.94  -0.11  -0.00  -0.28   2.91  -0.00   0.00  -0.00   0.00  -0.13  -1.10
     40:    0.24   4.03   0.00   0.02   0.02   0.00  -0.04  -0.02   0.00   0.00   0.00   0.00  -0.24   0.04
     41:   -0.08   0.11   0.00  -0.12  -0.07   0.00  -0.01  -0.01   0.00   0.00  -0.00  -0.00  -2.69  -0.60
     44:    8.17   2.02   3.39   7.28   6.44   0.00   6.81  -0.17  -0.00   0.00  -0.00   0.00   0.56   0.45
     45:    0.18   0.22   0.47  -0.09   1.21  -0.00   2.19  -0.35  -0.00   0.00  -0.00   0.00  -0.39  -9.35
     47:   -0.00  -0.00   0.00   0.00  -0.00  17.22   0.00  -0.00  21.43  10.33  28.79   5.71   0.00   0.00
     48:   -0.00   0.00  -0.00  -0.00   0.00  -0.98  -0.00   0.00   0.08   0.04  -3.22  -0.64  -0.00  -0.00
     50:    2.53   0.61  11.09   4.03   0.40   0.00   0.24   8.14  -0.00   0.00   0.00   0.00   0.17   0.26
     51:    0.06   0.06   1.53   1.13  -0.33  -0.00  -0.15   2.84   0.00  -0.00  -0.00  -0.00  -0.12  -1.70
     59:    0.24   4.04   0.00  -0.00   0.03  -0.00  -0.00  -0.06   0.00  -0.00   0.00   0.00  -0.24   0.01
     60:   -0.08   0.11   0.00  -0.00  -0.18   0.00  -0.00  -0.02   0.00  -0.00   0.00   0.00  -2.69  -0.10
     63:    0.01   0.00  14.44   0.43  -0.00  -0.00   9.02   0.16   0.00  -0.00   0.00  -0.00   0.00  -1.75
     64:    0.00   0.00   2.00   0.67   0.00   0.00   3.00   0.05  -0.00   0.00   0.00   0.00  -0.00  -8.13
     66:    0.00   0.00  -0.00  -0.00   0.00  17.22   0.00  -0.00   0.22  31.55   0.38  34.11   0.00   0.00
     67:    0.00   0.00  -0.00   0.00   0.00  -0.98   0.00  -0.00   0.00   0.11  -0.04  -3.81  -0.00   0.00
     69:   10.70   2.58   0.01   0.30  17.49  -0.00   0.12   5.75   0.00  -0.00   0.00  -0.00   0.73   0.15
     70:    0.23   0.28   0.00   0.01   1.25  -0.00   0.04   1.43  -0.00   0.00  -0.00  -0.00  -0.51  -1.73
     74:    0.00   0.00   0.00  -0.00   0.00   0.00  -0.00   0.00   0.61   0.00   1.13   0.01   0.00   0.00
     78:    0.24   4.02   0.00   0.03   0.01  -0.00  -0.05  -0.01  -0.00   0.00  -0.00   0.00  -0.24   0.01
     79:   -0.08   0.11   0.00  -0.16  -0.03   0.00  -0.02  -0.00  -0.00   0.00  -0.00   0.00  -2.69  -0.21
     82:    7.86   1.94   3.84  10.10   2.98  -0.00   6.49   0.24  -0.00  -0.00  -0.00   0.00   0.53  -0.75
     83:    0.17   0.21   0.53   0.24   0.86   0.00   2.00  -0.10  -0.00  -0.00   0.00  -0.00  -0.37  -9.06
     85:   -0.00  -0.00   0.00  -0.00  -0.00  17.22  -0.00   0.00  25.99   5.77  22.58  11.92   0.00   0.00
     86:   -0.00  -0.00   0.00   0.00   0.00  -0.98  -0.00   0.00   0.09   0.02  -2.52  -1.33   0.00   0.00
     88:    2.84   0.71  10.64   5.11  -0.07  -0.00  -0.12   8.41   0.00  -0.00  -0.00   0.00   0.20  -0.35
     89:    0.06   0.07   1.47   0.93  -0.11  -0.00  -0.28   2.91   0.00  -0.00  -0.00   0.00  -0.14  -1.08
     97:    0.24   4.03   0.00   0.02   0.01  -0.00  -0.04  -0.02   0.00   0.00  -0.00   0.00  -0.24   0.04
     98:   -0.08   0.11   0.00  -0.11  -0.07  -0.00  -0.01  -0.01   0.00   0.00   0.00  -0.00  -2.69  -0.60
    101:    8.24   2.02   3.30   7.26   6.47  -0.00   6.78  -0.16  -0.00   0.00  -0.00   0.00   0.56   0.44
    102:    0.18   0.22   0.46  -0.09   1.21   0.00   2.18  -0.35   0.00   0.00  -0.00  -0.00  -0.39  -9.40
    104:    0.00   0.00  -0.00  -0.00   0.00  17.22   0.00   0.00  21.46  10.30  28.82   5.68   0.00   0.00
    105:    0.00   0.00  -0.00   0.00  -0.00  -0.98   0.00   0.00   0.08   0.04  -3.22  -0.64  -0.00  -0.00
    107:    2.45   0.60  11.17   4.01   0.40   0.00   0.25   8.17  -0.00   0.00  -0.00   0.00   0.17   0.28
    108:    0.05   0.06   1.54   1.13  -0.32  -0.00  -0.15   2.84   0.00  -0.00   0.00   0.00  -0.12  -1.69
    115:    5.54   9.20   0.00  11.08   1.84  -0.00  11.25   2.10   0.00   0.00   0.00   0.00   7.80   7.48
    116:   -0.02   0.16  -0.00   0.13   0.02   0.00  -0.17  -0.03   0.00   0.00   0.00   0.00  11.27  11.14
    121:    5.54   9.17   0.00   8.16   4.79   0.00   8.62   4.73   0.00   0.00   0.00  -0.00   7.81  21.74
    122:   -0.02   0.16  -0.00   0.10   0.06  -0.00  -0.13  -0.07   0.00  -0.00  -0.00  -0.00  11.29  32.31
    125:    0.00   0.00   0.00  -0.00   0.00   0.25   0.00   0.00   0.56   0.27   1.15   0.23   0.00   0.00
    127:    5.53   9.09   0.00   0.24  12.78   0.00   0.18  13.19   0.00   0.00   0.00   0.00   7.81   3.72
    128:   -0.02   0.16  -0.00   0.00   0.16  -0.00  -0.00  -0.19   0.00   0.00   0.00   0.00  11.28   5.51
    131:   -0.00  -0.00   0.00  -0.00  -0.00   0.25   0.00   0.00   0.01   0.83   0.01   1.35   0.00   0.00
    133:    5.54   9.20   0.00  11.06   1.87   0.00  11.24   2.11  -0.00   0.00   0.00   0.00   7.80   7.63
    134:   -0.02   0.16  -0.00   0.13   0.02  -0.00  -0.17  -0.03  -0.00   0.00   0.00   0.00  11.27  11.33
    139:    5.54   9.17   0.00   8.13   4.82   0.00   8.61   4.75   0.00  -0.00   0.00   0.00   7.81  21.78
    140:   -0.02   0.16  -0.00   0.10   0.06   0.00  -0.13  -0.07  -0.00  -0.00   0.00   0.00  11.29  32.35
    143:   -0.00  -0.00   0.00  -0.00   0.00   0.25  -0.00   0.00   0.56   0.27   1.14   0.23   0.00  -0.00
    145:    5.53   9.09   0.00   0.23  12.79  -0.00   0.17  13.19   0.00  -0.00   0.00   0.00   7.81   3.60
    146:   -0.02   0.16  -0.00   0.00   0.16  -0.00  -0.00  -0.19  -0.00  -0.00  -0.00  -0.00  11.27   5.36
    149:    0.00  -0.00  -0.00  -0.00  -0.00   0.25   0.00   0.00   0.01   0.83   0.02   1.35   0.00  -0.00


 Summation over all MOs, multiplied by occupation: Total SFO Gross Populations in this Irrep
 ===========================================================================================

     2.00    1.07   -0.01   -0.00   -0.00    0.84    0.07   -0.01    0.98   -0.02   -0.00    0.81
     0.03   -0.01    0.02    0.01    0.01    0.02    0.00    2.00    1.07   -0.01   -0.00   -0.00
     0.82    0.04   -0.01    0.98   -0.02   -0.00    0.83    0.06   -0.01    0.02    0.01    0.01
     0.02    0.01    2.00    1.07   -0.01   -0.00   -0.00    0.82    0.04   -0.01    0.98   -0.02
    -0.00    0.83    0.06   -0.01    0.02    0.01    0.01    0.02    0.01    2.00    1.07   -0.01
    -0.00   -0.00    0.84    0.07   -0.01    0.98   -0.02   -0.00    0.81    0.03   -0.01    0.02
     0.01    0.01    0.02    0.00    2.00    1.07   -0.01   -0.00   -0.00    0.82    0.04   -0.01
     0.98   -0.02   -0.00    0.83    0.06   -0.01    0.02    0.01    0.01    0.02    0.01    2.00
     1.07   -0.01   -0.00   -0.00    0.82    0.04   -0.01    0.98   -0.02   -0.00    0.83    0.06
    -0.01    0.02    0.01    0.01    0.02    0.01    1.11   -0.00   -0.00    0.03    0.02    0.02
     1.11   -0.00   -0.00    0.03    0.02    0.02    1.11   -0.00   -0.00    0.02    0.02    0.03
     1.11   -0.00   -0.00    0.03    0.02    0.02    1.11   -0.00   -0.00    0.03    0.02    0.02
     1.11   -0.00   -0.00    0.02    0.02    0.03



 List of all MOs, ordered by energy, with the most significant SFO gross populations
 ===================================================================================

 Each percentage contribution in the table below corresponds to the indicated SFO.
 In general, a SFO may be a linear combination of several Fragment Orbitals on the same,
 or on symmetry-related Fragments. Only the first 'member' of such a combination is
 specified here. A full definition of all SFOs is given in an earlier part of the output.
 The numbering of the SFOs in this table does NOT include the Core Orbitals, and starts
 from one for each symmetry representation, as in the SFO definition list earlier.

       E(eV)  Occ       MO           %     SFO (first member)   E(eV)  Occ   Fragment
 -------------------------------------------------------------------------------------

     -21.394  2.00     7 A         14.60%     2 S             -13.876  2.00     2 C
                                   14.60%     2 S             -13.876  2.00     5 C
                                   14.60%     2 S             -13.876  2.00     4 C
                                   14.60%     2 S             -13.876  2.00     1 C
                                   14.59%     2 S             -13.876  2.00     3 C
                                   14.59%     2 S             -13.876  2.00     6 C
                                    2.37%     1 P:z            -5.403  0.67     4 C
                                    2.37%     1 P:z            -5.403  0.67     1 C
                                    1.83%     1 P:x            -5.403  0.67     3 C
                                    1.82%     1 P:x            -5.403  0.67     6 C
                                    1.74%     1 P:x            -5.403  0.67     2 C
                                    1.74%     1 P:x            -5.403  0.67     5 C
                                    1.24%     1 S              -6.626  1.00     7 H
                                    1.24%     1 S              -6.626  1.00    10 H
                                    1.24%     1 S              -6.626  1.00     8 H
                                    1.24%     1 S              -6.626  1.00    11 H
                                    1.23%     1 S              -6.626  1.00     9 H
                                    1.23%     1 S              -6.626  1.00    12 H
     -18.622  2.00     8 A         20.67%     2 S             -13.876  2.00     5 C
                                   20.64%     2 S             -13.876  2.00     2 C
                                   13.11%     2 S             -13.876  2.00     6 C
                                   13.06%     2 S             -13.876  2.00     3 C
                                    5.53%     1 P:x            -5.403  0.67     1 C
                                    5.52%     1 P:x            -5.403  0.67     4 C
                                    5.09%     1 S              -6.626  1.00    10 H
                                    5.08%     1 S              -6.626  1.00     7 H
                                    3.23%     1 S              -6.626  1.00    11 H
                                    3.21%     1 S              -6.626  1.00     8 H
                                    2.33%     1 P:z            -5.403  0.67     6 C
                                    2.32%     1 P:z            -5.403  0.67     3 C
                                   -1.63%     2 P:x             4.709  0.00     1 C
                                   -1.63%     2 P:x             4.709  0.00     4 C
     -18.619  2.00     9 A         22.21%     2 S             -13.876  2.00     4 C
                                   22.19%     2 S             -13.876  2.00     1 C
                                   10.00%     2 S             -13.876  2.00     3 C
                                    9.95%     2 S             -13.876  2.00     6 C
                                    5.47%     1 S              -6.626  1.00     9 H
                                    5.46%     1 S              -6.626  1.00    12 H
                                    3.47%     1 P:z            -5.403  0.67     2 C
                                    3.45%     1 P:z            -5.403  0.67     5 C
                                    2.47%     1 S              -6.626  1.00     8 H
                                    2.45%     1 S              -6.626  1.00    11 H
                                    2.43%     2 S             -13.876  2.00     2 C
                                    2.40%     2 S             -13.876  2.00     5 C
                                    2.05%     1 P:z            -5.403  0.67     3 C
                                    2.03%     1 P:z            -5.403  0.67     6 C
                                    1.66%     1 P:x            -5.403  0.67     5 C
                                    1.65%     1 P:x            -5.403  0.67     2 C
[...]
        5        delta  0.1187376452819E+03
 CRIT   1.66856851906241     
 iter.  6 V(1) measure  0.8938991716207E+05
        6        delta  0.7135564751516E+01
 CRIT  0.714557969192922     
 iter.  7 V(1) measure  0.8938607840116E+05
        7        delta  0.3838760905623E+01
 CRIT  0.102658408574590     
 iter.  8 V(1) measure  0.8938558992658E+05
        8        delta  0.4884745861782E+00
 CRIT  7.970227314635733E-002
 iter.  9 V(1) measure  0.8938526406695E+05
        9        delta  0.3258596273809E+00
 CRIT  3.170841812179574E-002
 iter. 10 V(1) measure  0.8938518171323E+05
       10        delta  0.8235371689079E-01
 *** convergence reached

    RRIJmat_z_z         
    using first order VWN potential
 
    NOTE: We will NOT use the GGA kernel (input option ALDA was set)
 
 CRIT   1.00000000000000     
 iter.  1 V(1) measure  0.1302415298499E+04
 *** convergence criterion : .1302415E-02
 CRIT   159.398455481862     
 iter.  2 V(1) measure  0.1073504040921E+04
        2        delta  0.2289112575787E+03
 CRIT   60.1912481535668     
 iter.  3 V(1) measure  0.1109067367014E+04
        3        delta  0.3556332609285E+02
 CRIT   15.7975709584313     
 iter.  4 V(1) measure  0.1114224397636E+04
        4        delta  0.5157030622248E+01
 CRIT   3.37028704075335     
 iter.  5 V(1) measure  0.1115185933555E+04
        5        delta  0.9615359194647E+00
 CRIT   2.36021833776577     
 iter.  6 V(1) measure  0.1115647665011E+04
        6        delta  0.4617314559268E+00
 CRIT  0.828048316554470     
 iter.  7 V(1) measure  0.1115693898272E+04
        7        delta  0.4623326040587E-01
 CRIT  0.382133612681023     
 iter.  8 V(1) measure  0.1115695293640E+04
        8        delta  0.1395368846715E-02
 CRIT  7.133531048232984E-002
 iter.  9 V(1) measure  0.1115692846857E+04
        9        delta  0.2446783674486E-02
 CRIT  4.925187574670871E-002
 iter. 10 V(1) measure  0.1115691167664E+04
       10        delta  0.1679192741904E-02
 CRIT  7.628737890331576E-003
 iter. 11 V(1) measure  0.1115691494740E+04
       11        delta  0.3270760760188E-03
 *** convergence reached
 ------------------------------------------
 Convergence acceleration: T
 QUADRUPOLE-QUADRUPOLE POLARIZABILITY     
 Frequency  =  0.1322975682     Hartrees
 Wavelength =   344.4005294     nm
 Wavenumber =   29035.96001     cm^{-1}
 Energy     =   3.600000000     eV
 ------------------------------------------
 QUADRUPOLE-QUADRUPOLE Polarizability tensor:
 
 xx xx     4188.90531022083     
 xx xy     3.30650800661707     
 xx xz   -0.188919062011656     
 xx yy    -4991.70688001539     
 xx yz    0.153563772873213     
 xx zz     802.801569794539     
 xy xx     3.31595001803230     
 xy xy     12591.5417462139     
 xy xz    9.935896757204167E-002
 xy yy   -4.304402213133091E-002
 xy yz   -0.697621284052882     
 xy zz    -3.27290599586167     
 xz xx   -0.189580862529775     
 xz xy    0.100390241575538     
 xz xz     1693.65364052077     
 xz yy    0.154683669425211     
 xz yz    -3.14095762258793     
 xz zz    3.489719310376719E-002
 yy xx    -4991.80910762137     
 yy xy    0.479567313251179     
 yy xz    0.135948030048150     
 yy yy     9983.78178076979     
 yy yz   -0.218014034853162     
 yy zz    -4991.97267314845     
 yz xx    0.154999914914514     
 yz xy   -0.727803110110495     
 yz xz    -3.13948185376779     
 yz yy    2.528485349550724E-002
 yz yz     12590.8820012910     
 yz zz   -0.180284768422279     
 zz xx     802.797759306236     
 zz xy    -3.26565787069909     
 zz xz    4.135573406237540E-002
 zz yy    -4991.96705878028     
 zz yz   -0.179043749794169     
 zz zz     4189.16929947406     
 
 Imaginary QUADRUPOLE-QUADRUPOLE Polarizability tensor:
 
 xx xx     18.6496183007851     
 xx xy    3.813452795208364E-002
 xx xz   -1.828381749146066E-003
 xx yy    -21.5222369030161     
 xx yz    1.421908878761962E-003
 xx zz     2.87261860223136     
 xy xx    2.335188408037861E-002
 xy xy     124.985911043955     
 xy xz    2.779148766120406E-004
 xy yy   -6.269654193506725E-004
 xy yz    7.032982206107308E-004
 xy zz   -2.272491866095385E-002
 xz xx   -1.651968727752195E-003
 xz xy    1.583317036464155E-004
 xz xz     7.93268938407406     
 xz yy    1.245161274396923E-003
 xz yz   -2.178375973394522E-002
 xz zz    4.068074533435472E-004
 yy xx    -21.5007596088349     
 yy xy    0.120172045427205     
 yy xz    5.050612035811990E-004
 yy yy     42.9971720047975     
 yy yz   -5.516650991440895E-002
 yy zz    -21.4964123959629     
 yz xx    6.077628904205094E-004
 yz xy    1.731521272542991E-003
 yz xz   -2.148055895671024E-002
 yz yy    4.394675077279524E-004
 yz yz     124.955007585718     
 yz zz   -1.047230398304421E-003
 zz xx     2.84668995514397     
 zz xy   -2.279736294163235E-002
 zz xz    5.190220902279155E-004
 zz yy    -21.5531059790038     
 zz yz   -8.066858221576724E-004
 zz zz     18.7064160238599     



 =======================================================================
 Electrostatic potential at the Nuclei due to electrons and other nuclei
 =======================================================================
  
         Atom                  Potential
         ----                  ---------
     1)   C                  14.76889521
     2)   C                  14.76879793
     3)   C                  14.76875540
     4)   C                  14.76889621
     5)   C                  14.76878997
     6)   C                  14.76873740
     7)   H                   1.10109301
     8)   H                   1.10117692
     9)   H                   1.10157507
    10)   H                   1.10109681
    11)   H                   1.10117871
    12)   H                   1.10157725
 
 
 ========================
 No memory problems found
 ========================
 
 Maximum number of active allocate calls:        1279
 
 *******************************************************************************

                             A D F   E X I T
 NORMAL TERMINATION



 =================
 Timing Statistics
 =================
  
 Total Used :                     CPU=       38.97      System=        0.58     Elapsed=       39.93

 Calls  Section                     ( Mean, Percentage )
 ---------------------------------------------------------------------------------------------------
     3  ><      ................      0.00    0.01             0.00    0.00             0.00    0.01
     1  INIT    ................      0.54    1.38             0.00    0.66             0.55    1.37
     1  GEOMET  ................      0.04    0.10             0.01    2.20             0.05    0.13
     1  FRAGM   ................      0.02    0.06             0.01    2.09             0.03    0.09
     1  INPUTA  ................      0.00    0.01             0.00    0.00             0.00    0.01
     1  ATDEN   ................      0.00    0.01             0.00    0.00             0.00    0.01
     1  MAINSY  ................      0.03    0.07             0.01    1.35             0.04    0.09
     1  SYMFIT  ................      0.01    0.02             0.00    0.01             0.01    0.02
     1  CORORT  ................      0.00    0.00             0.00    0.01             0.00    0.00
     1  SYMORB  ................      0.00    0.01             0.00    0.01             0.00    0.01
     1  CLSMAT  ................      0.01    0.03             0.00    0.00             0.01    0.03
     1  ORTHON  ................      0.02    0.04             0.00    0.00             0.02    0.04
     1  GENPT   ................      0.12    0.32             0.00    0.00             0.12    0.31
     1  PTBAS   ................      0.08    0.22             0.00    0.66             0.09    0.22
    12  FOCKY   ................      0.28    8.75             0.00    4.88             0.29    8.77
    12  FOCKTR  ................      0.00    0.13             0.00    0.66             0.00    0.14
    12  SDIIS   ................      0.01    0.16             0.00    0.74             0.01    0.17
     1  COREPS  ................      0.22    0.57             0.00    0.00             0.22    0.56
     1  TOTEN   ................      0.99    2.54             0.03    5.51             1.04    2.61
     1  POPAN   ................      0.01    0.02             0.00    0.00             0.01    0.02
     1  DEBYE   ................      0.01    0.03             0.00    0.56             0.02    0.04
     1  INPUTE  ................      0.00    0.00             0.00    0.12             0.00    0.00
     1  SYMORE  ................      0.00    0.00             0.00    0.01             0.00    0.00
     1  METS    ................      0.00    0.00             0.00    0.28             0.00    0.00
     1  CETS    ................      0.01    0.02             0.00    0.41             0.01    0.03
     1  ELNRGY  ................      0.01    0.03             0.00    0.00             0.01    0.03
     1  POPUL   ................      0.01    0.04             0.00    0.00             0.01    0.04
     1  AORESPONSE .............     33.28   85.40             0.46   78.49            34.01   85.17
     1  EXIT PROCEDURE .........      0.02    0.05             0.01    1.35             0.04    0.09


 Currently Open Files (EXIT00)
 ====================

 Unit    Access Format  Status   Type       Ident (file)
 -------------------------------------------------------
   3      SEQ    FORM   TRANSP  NORMAL      LOGFILE
                                          ( logfile )

 ***************************************************************************************************
 (LOGFILE)
 <Sep29-2020> <15:14:38>  ADF 2019  RunTime: Sep29-2020 15:14:38  Nodes: 1  Procs: 1
 <Sep29-2020> <15:14:38>  Hydrogen (TZP)
 <Sep29-2020> <15:14:38>  RunType   : CREATE
 <Sep29-2020> <15:14:38>  Net Charge: 0 (Nuclei minus Electrons)
 <Sep29-2020> <15:14:38>  Symmetry  : ATOM
  Coordinates
    Atom         X           Y           Z   (Angstrom)
    1.H         0.000000    0.000000    0.000000
 <Sep29-2020> <15:14:38>  >>>> CORORT
 <Sep29-2020> <15:14:38>  >>>> CLSMAT
 <Sep29-2020> <15:14:38>  >>>> ORTHON
 <Sep29-2020> <15:14:38>  >>>> GENPT
 <Sep29-2020> <15:14:38>  Block Length=  64
 <Sep29-2020> <15:14:38>  >>>> PTBAS
 <Sep29-2020> <15:14:38>  >>>> CYCLE
 <Sep29-2020> <15:14:38>              |Error|         MaxErr       Wt(A-DIIS)
 <Sep29-2020> <15:14:38>      1      0.00000000      0.00000000
 <Sep29-2020> <15:14:38>      2      0.03052909      0.02968459
 <Sep29-2020> <15:14:38>      3      0.00718138      0.00670742    100.0
 <Sep29-2020> <15:14:38>      4      0.00117303      0.00114116      0.1
 <Sep29-2020> <15:14:38>      5      0.00002783      0.00002380      0.0
 <Sep29-2020> <15:14:38>      6      0.00000153      0.00000130      0.0
 <Sep29-2020> <15:14:38>      7      0.00000000      0.00000000      0.0
 <Sep29-2020> <15:14:38>  SCF converged
 <Sep29-2020> <15:14:38>      8      0.00000000      0.00000000      0.0
 <Sep29-2020> <15:14:38>  >>>> POPAN
 <Sep29-2020> <15:14:38>  >>>> DEBYE
 <Sep29-2020> <15:14:38>  NORMAL TERMINATION
 <Sep29-2020> <15:14:38>  END
 <Sep29-2020> <15:14:39>  ADF 2019  RunTime: Sep29-2020 15:14:39  Nodes: 1  Procs: 1
 <Sep29-2020> <15:14:39>  Carbon (TZP)
 <Sep29-2020> <15:14:39>  RunType   : CREATE
 <Sep29-2020> <15:14:39>  Net Charge: 0 (Nuclei minus Electrons)
 <Sep29-2020> <15:14:39>  Symmetry  : ATOM
  Coordinates
    Atom         X           Y           Z   (Angstrom)
    1.C         0.000000    0.000000    0.000000
 <Sep29-2020> <15:14:39>  >>>> CORORT
 <Sep29-2020> <15:14:39>  >>>> CLSMAT
 <Sep29-2020> <15:14:39>  >>>> ORTHON
 <Sep29-2020> <15:14:39>  >>>> GENPT
 <Sep29-2020> <15:14:39>  Block Length=  72
 <Sep29-2020> <15:14:39>  >>>> PTBAS
 <Sep29-2020> <15:14:39>  >>>> CYCLE
 <Sep29-2020> <15:14:39>              |Error|         MaxErr       Wt(A-DIIS)
 <Sep29-2020> <15:14:39>      1      0.00000000      0.00000000
 <Sep29-2020> <15:14:39>      2      4.48324754      3.31969244    100.0
 <Sep29-2020> <15:14:39>      3      1.61537707      1.30410194    100.0
 <Sep29-2020> <15:14:39>      4      0.72706284      0.59053131    100.0
 <Sep29-2020> <15:14:39>      5      0.40898688      0.33263800    100.0
 <Sep29-2020> <15:14:39>      6      0.13548919      0.10594416    100.0
 <Sep29-2020> <15:14:39>      7      0.11406432      0.09088019     90.8
 <Sep29-2020> <15:14:39>      8      0.01170325      0.00926551      8.3
 <Sep29-2020> <15:14:39>      9      0.00078015      0.00061791      0.0
 <Sep29-2020> <15:14:39>     10      0.00000178      0.00000107      0.0
 <Sep29-2020> <15:14:39>     11      0.00000024      0.00000019      0.0
 <Sep29-2020> <15:14:39>     12      0.00000000      0.00000000      0.0
 <Sep29-2020> <15:14:39>  SCF converged
 <Sep29-2020> <15:14:39>     13      0.00000000      0.00000000      0.0
 <Sep29-2020> <15:14:39>  >>>> POPAN
 <Sep29-2020> <15:14:39>  >>>> DEBYE
 <Sep29-2020> <15:14:39>  NORMAL TERMINATION
 <Sep29-2020> <15:14:39>  END
 <Sep29-2020> <15:14:40>  ADF 2019  RunTime: Sep29-2020 15:14:40  Nodes: 1  Procs: 6
 <Sep29-2020> <15:14:40>  None
 <Sep29-2020> <15:14:40>  RunType   : SINGLE POINT
 <Sep29-2020> <15:14:40>  Net Charge: 0 (Nuclei minus Electrons)
 <Sep29-2020> <15:14:40>  Symmetry  : NOSYM
 <Sep29-2020> <15:14:40>  >>>> FRAGM
  Coordinates
    Atom         X           Y           Z   (Angstrom)
    1.C         0.029547    4.000000   -1.398605
    2.C        -1.196921    4.000000   -0.725422
    3.C        -1.226626    4.000000    0.673827
    4.C        -0.029859    4.000000    1.398595
    5.C         1.197079    4.000000    0.725173
    6.C         1.226774    4.000000   -0.673568
    7.H        -2.128994    4.000000   -1.293309
    8.H        -2.182068    4.000000    1.201673
    9.H        -0.055185    4.000000    2.490052
   10.H         2.131232    4.000000    1.289643
   11.H         2.184242    4.000000   -1.197911
   12.H         0.050747    4.000000   -2.490148
 <Sep29-2020> <15:14:40>  >>>> CORORT
 <Sep29-2020> <15:14:40>  >>>> CLSMAT
 <Sep29-2020> <15:14:40>  >>>> ORTHON
 <Sep29-2020> <15:14:40>  >>>> GENPT
 <Sep29-2020> <15:14:41>  Block Length= 128
 <Sep29-2020> <15:14:41>  >>>> PTBAS
 <Sep29-2020> <15:14:41>  >>>> CYCLE
 <Sep29-2020> <15:14:41>              |Error|         MaxErr       Wt(A-DIIS)
 <Sep29-2020> <15:14:41>      1      5.99093627      0.98028201
 <Sep29-2020> <15:14:41>      2      0.89232534      0.18710467    100.0
 <Sep29-2020> <15:14:42>      3      0.52145311      0.10260879    100.0
 <Sep29-2020> <15:14:42>      4      0.74325262      0.17265486    100.0
 <Sep29-2020> <15:14:42>      5      0.07622450      0.01073108      9.8
 <Sep29-2020> <15:14:43>      6      0.01070989      0.00169663      0.7
 <Sep29-2020> <15:14:43>      7      0.00113662      0.00027464      0.0
 <Sep29-2020> <15:14:43>      8      0.00033375      0.00008959      0.0
 <Sep29-2020> <15:14:43>      9      0.00016072      0.00004687      0.0
 <Sep29-2020> <15:14:44>     10      0.00003187      0.00000856      0.0
 <Sep29-2020> <15:14:44>     11      0.00000322      0.00000083      0.0
 <Sep29-2020> <15:14:44>  SCF converged
 <Sep29-2020> <15:14:44>     12      0.00000028      0.00000004      0.0
 <Sep29-2020> <15:14:45>  >>>> TOTEN
 <Sep29-2020> <15:14:46>  >>>> POPAN
 <Sep29-2020> <15:14:46>  >>>> DEBYE
 <Sep29-2020> <15:14:46>  >>>> AMETS
 <Sep29-2020> <15:14:46>  >>>> POPUL
 <Sep29-2020> <15:14:46>     1 V(1)  0.1843966E+04
 <Sep29-2020> <15:14:46>     2 V(1)  0.1574195E+04
 <Sep29-2020> <15:14:47>     3 V(1)  0.1556894E+04
 <Sep29-2020> <15:14:47>     4 V(1)  0.1563447E+04
 <Sep29-2020> <15:14:48>     5 V(1)  0.1565404E+04
 <Sep29-2020> <15:14:48>     6 V(1)  0.1565282E+04
 <Sep29-2020> <15:14:48>     7 V(1)  0.1565230E+04
 <Sep29-2020> <15:14:49>     8 V(1)  0.1565224E+04
 <Sep29-2020> <15:14:49>     9 V(1)  0.1565220E+04
 <Sep29-2020> <15:14:49>    10 V(1)  0.1565218E+04
 <Sep29-2020> <15:14:49>   convergence reached
 <Sep29-2020> <15:14:50>     1 V(1)  0.2536231E+02
 <Sep29-2020> <15:14:50>     2 V(1)  0.2328901E+02
 <Sep29-2020> <15:14:51>     3 V(1)  0.2328367E+02
 <Sep29-2020> <15:14:51>     4 V(1)  0.2328292E+02
 <Sep29-2020> <15:14:51>     5 V(1)  0.2328280E+02
 <Sep29-2020> <15:14:52>     6 V(1)  0.2328283E+02
 <Sep29-2020> <15:14:52>   convergence reached
 <Sep29-2020> <15:14:52>     1 V(1)  0.1841786E+04
 <Sep29-2020> <15:14:53>     2 V(1)  0.1572226E+04
 <Sep29-2020> <15:14:53>     3 V(1)  0.1554974E+04
 <Sep29-2020> <15:14:53>     4 V(1)  0.1561516E+04
 <Sep29-2020> <15:14:54>     5 V(1)  0.1563470E+04
 <Sep29-2020> <15:14:54>     6 V(1)  0.1563367E+04
 <Sep29-2020> <15:14:54>     7 V(1)  0.1563300E+04
 <Sep29-2020> <15:14:55>     8 V(1)  0.1563292E+04
 <Sep29-2020> <15:14:55>     9 V(1)  0.1563289E+04
 <Sep29-2020> <15:14:56>    10 V(1)  0.1563287E+04
 <Sep29-2020> <15:14:56>   convergence reached
 <Sep29-2020> <15:14:56>     1 V(1)  0.1302760E+04
 <Sep29-2020> <15:14:57>     2 V(1)  0.1073686E+04
 <Sep29-2020> <15:14:57>     3 V(1)  0.1109261E+04
 <Sep29-2020> <15:14:58>     4 V(1)  0.1114411E+04
 <Sep29-2020> <15:14:58>     5 V(1)  0.1115379E+04
 <Sep29-2020> <15:14:58>     6 V(1)  0.1115841E+04
 <Sep29-2020> <15:14:59>     7 V(1)  0.1115887E+04
 <Sep29-2020> <15:14:59>     8 V(1)  0.1115888E+04
 <Sep29-2020> <15:14:59>   convergence reached
 <Sep29-2020> <15:15:00>     1 V(1)  0.1057831E+06
 <Sep29-2020> <15:15:00>     2 V(1)  0.8965779E+05
 <Sep29-2020> <15:15:01>     3 V(1)  0.8876240E+05
 <Sep29-2020> <15:15:01>     4 V(1)  0.8938860E+05
 <Sep29-2020> <15:15:02>     5 V(1)  0.8950749E+05
 <Sep29-2020> <15:15:02>     6 V(1)  0.8949926E+05
 <Sep29-2020> <15:15:03>     7 V(1)  0.8949636E+05
 <Sep29-2020> <15:15:03>     8 V(1)  0.8949591E+05
 <Sep29-2020> <15:15:03>     9 V(1)  0.8949559E+05
 <Sep29-2020> <15:15:04>    10 V(1)  0.8949552E+05
 <Sep29-2020> <15:15:04>   convergence reached
 <Sep29-2020> <15:15:04>     1 V(1)  0.6150682E+03
 <Sep29-2020> <15:15:05>     2 V(1)  0.4702602E+03
 <Sep29-2020> <15:15:05>     3 V(1)  0.4840965E+03
 <Sep29-2020> <15:15:05>     4 V(1)  0.4848293E+03
 <Sep29-2020> <15:15:06>     5 V(1)  0.4858096E+03
 <Sep29-2020> <15:15:06>     6 V(1)  0.4859920E+03
 <Sep29-2020> <15:15:07>     7 V(1)  0.4860103E+03
 <Sep29-2020> <15:15:07>     8 V(1)  0.4860114E+03
 <Sep29-2020> <15:15:07>     9 V(1)  0.4860097E+03
 <Sep29-2020> <15:15:08>    10 V(1)  0.4860095E+03
 <Sep29-2020> <15:15:08>   convergence reached
 <Sep29-2020> <15:15:08>     1 V(1)  0.2748735E+04
 <Sep29-2020> <15:15:09>     2 V(1)  0.2507396E+04
 <Sep29-2020> <15:15:09>     3 V(1)  0.2520132E+04
 <Sep29-2020> <15:15:10>     4 V(1)  0.2520557E+04
 <Sep29-2020> <15:15:10>     5 V(1)  0.2520556E+04
 <Sep29-2020> <15:15:10>   convergence reached
 <Sep29-2020> <15:15:10>     1 V(1)  0.1056584E+06
 <Sep29-2020> <15:15:11>     2 V(1)  0.8954569E+05
 <Sep29-2020> <15:15:11>     3 V(1)  0.8865298E+05
 <Sep29-2020> <15:15:12>     4 V(1)  0.8927832E+05
 <Sep29-2020> <15:15:12>     5 V(1)  0.8939705E+05
 <Sep29-2020> <15:15:13>     6 V(1)  0.8938992E+05
 <Sep29-2020> <15:15:13>     7 V(1)  0.8938608E+05
 <Sep29-2020> <15:15:14>     8 V(1)  0.8938559E+05
 <Sep29-2020> <15:15:14>     9 V(1)  0.8938526E+05
 <Sep29-2020> <15:15:14>    10 V(1)  0.8938518E+05
 <Sep29-2020> <15:15:14>   convergence reached
 <Sep29-2020> <15:15:15>     1 V(1)  0.1302415E+04
 <Sep29-2020> <15:15:15>     2 V(1)  0.1073504E+04
 <Sep29-2020> <15:15:16>     3 V(1)  0.1109067E+04
 <Sep29-2020> <15:15:17>     4 V(1)  0.1114224E+04
 <Sep29-2020> <15:15:17>     5 V(1)  0.1115186E+04
 <Sep29-2020> <15:15:17>     6 V(1)  0.1115648E+04
 <Sep29-2020> <15:15:18>     7 V(1)  0.1115694E+04
 <Sep29-2020> <15:15:18>     8 V(1)  0.1115695E+04
 <Sep29-2020> <15:15:19>     9 V(1)  0.1115693E+04
 <Sep29-2020> <15:15:19>    10 V(1)  0.1115691E+04
 <Sep29-2020> <15:15:20>    11 V(1)  0.1115691E+04
 <Sep29-2020> <15:15:20>   convergence reached
 <Sep29-2020> <15:15:20>  NORMAL TERMINATION
 <Sep29-2020> <15:15:20>  END
