

 Parallel Execution: Process Information
 ==============================================================================
 Rank   Node Name                              NodeID   MyNodeRank  NodeMaster
    0   magnesium.science.psu.edu                 0          0          0
    1   magnesium.science.psu.edu                 0          1         -1
    2   magnesium.science.psu.edu                 0          2         -1
    3   magnesium.science.psu.edu                 0          3         -1
    4   magnesium.science.psu.edu                 0          4         -1
    5   magnesium.science.psu.edu                 0          5         -1
 ==============================================================================


May use up to 7495MB of RAM as shared memory on node 0
 
TITLE None

ATOMS
1  C     0.02965766    4.00000000   -1.39910273
2  C    -1.19755565    4.00000000   -0.72480785
3  C    -1.22613906    4.00000000    0.67413923
4  C    -0.02974234    4.00000000    1.39809727
5  C     1.19644435    4.00000000    0.72579215
6  C     1.22726094    4.00000000   -0.67326077
7  H    -2.12899929    4.00000000   -1.29382314
8  H    -2.18394141    4.00000000    1.19756682
9  H    -0.05278832    4.00000000    2.48950202
10 H     2.13119542    4.00000000    1.28917686
11 H     2.18235859    4.00000000   -1.20202789
12 H     0.05311168    4.00000000   -2.49069798
END

XC
 gga BP86
end

symmetry nosym

aoresponse
 alda
 frequency 1 3.6 eV
 lifetime 0.0037
 El_Dipole_El_Dipole
 El_Dipole_El_Quadrupole
 El_Quadrupole_El_Quadrupole
 Traceless
end

Fragments
H t21.H
C t21.C
End

 *******************************************************************************
 *                                                                             *
 *  -------------------------------------                                      *
 *   Amsterdam Density Functional  (ADF)         2019                          *
 *  -------------------------------------                                      *
 *                                               r75281 2019-06-03             *
 *                                                                             *
 *                                                                             *
 *                              =================                              *
 *                              |               |                              *
 *                              |     A D F     |                              *
 *                              |               |                              *
 *                              =================                              *
 *                                                                             *
 *                                                                             *
 *   Online information and documentation:  https://www.scm.com/support/       *
 *   E-mail:  support@scm.com   info@scm.com                                   *
 *                                                                             *
 *   Scientific publications using ADF results must be properly referenced     *
 *   See the User Manuals (or the web site) for recommended citations          *
 *   The terms and conditions of the End User License Agreement apply to       *
 *   the use of ADF, https://www.scm.com/license-terms/                        *
 *                                                                             *
 **********************  x86_64_linux_intel / intelmpi  ************************
 
 Licensed to: Prof. Lasse Jensen / Penn State University / University Park / PA  / USA
 SCM User ID: u8493
  
 ADF 2019  RunTime: Sep29-2020 15:20:40  Nodes: 1  Procs: 6

 Temporary files are created in /scratch/kid_0.1290785990


Communication costs MPI_COMM_WORLD:      0.540 usec per message,   0.0073 usec per 8-byte item
Communication costs for intra-node:      0.535 usec per message,   0.0073 usec per 8-byte item

 None



 ===========================
 A T T A C H E D   F I L E S
 ===========================
  



 ===============================
 M O D E L   P A R A M E T E R S
 ===============================
  
 DENSITY FUNCTIONAL POTENTIAL (scf)
    LDA:                               VWN                                      
    Gradient Corrections:              Becke88 Perdew86                        == Not Default ==

 SPIN  (restricted / unrestr.)
    Molecule:                          Restricted                               
    Fragments:                         Restricted                               

 OTHER ASPECTS
    Relativistic Corrections:          ---                                      

    Nuclear Charge Density Model:      Point Charge Nuclei                      
    Core Treatment:                    Frozen Orbital(s)                        

    Hyperfine or Zeeman Interaction:   ---                                      


 Fragment File(s)
 ----------------
 C:
         file : t21.C
         jobid: ADF 2019  RunTime: Sep29-2020 15:20:39  Nodes: 1  Procs: 1
         title: Carbon (TZP)
 H:
         file : t21.H
         jobid: ADF 2019  RunTime: Sep29-2020 15:20:38  Nodes: 1  Procs: 1
         title: Hydrogen (TZP)



                                        ************************************
                                        *  R U N   T Y P E : SINGLE POINT  *
                                        ************************************
  



 ===============
 G E O M E T R Y  ***  Planar Molecule  ***
 ===============
  

 ATOMS
 =====                            X Y Z                    CHARGE
                                (Angstrom)             Nucl     +Core       At.Mass
                       --------------------------    ----------------       -------
    1  C               0.0297    4.0000   -1.3991      6.00      6.00       12.0000
    2  C              -1.1976    4.0000   -0.7248      6.00      6.00       12.0000
    3  C              -1.2261    4.0000    0.6741      6.00      6.00       12.0000
    4  C              -0.0297    4.0000    1.3981      6.00      6.00       12.0000
    5  C               1.1964    4.0000    0.7258      6.00      6.00       12.0000
    6  C               1.2273    4.0000   -0.6733      6.00      6.00       12.0000
    7  H              -2.1290    4.0000   -1.2938      1.00      1.00        1.0078
    8  H              -2.1839    4.0000    1.1976      1.00      1.00        1.0078
    9  H              -0.0528    4.0000    2.4895      1.00      1.00        1.0078
   10  H               2.1312    4.0000    1.2892      1.00      1.00        1.0078
   11  H               2.1824    4.0000   -1.2020      1.00      1.00        1.0078
   12  H               0.0531    4.0000   -2.4907      1.00      1.00        1.0078


 FRAGMENTS
 =========                                     Atoms in this Fragment     Cart. coord.s (Angstrom)
                                               -------------------------------------------------------
    1  C                                                 1  C            0.0297    4.0000   -1.3991
    2  C                                                 2  C           -1.1976    4.0000   -0.7248
    3  C                                                 3  C           -1.2261    4.0000    0.6741
    4  C                                                 4  C           -0.0297    4.0000    1.3981
    5  C                                                 5  C            1.1964    4.0000    0.7258
    6  C                                                 6  C            1.2273    4.0000   -0.6733
    7  H                                                 7  H           -2.1290    4.0000   -1.2938
    8  H                                                 8  H           -2.1839    4.0000    1.1976
    9  H                                                 9  H           -0.0528    4.0000    2.4895
   10  H                                                10  H            2.1312    4.0000    1.2892
   11  H                                                11  H            2.1824    4.0000   -1.2020
   12  H                                                12  H            0.0531    4.0000   -2.4907


 Interatomic Distance Matrix (Angstrom)
 --------------------------------------

   1)     0.000
   2)     1.400   0.000
   3)     2.424   1.399   0.000
   4)     2.798   2.423   1.398   0.000
   5)     2.424   2.799   2.423   1.398   0.000
   6)     1.400   2.425   2.799   2.423   1.399   0.000
   7)     2.161   1.091   2.165   3.414   3.891   3.413   0.000
   8)     3.412   2.161   1.091   2.164   3.413   3.891   2.492   0.000
   9)     3.889   3.412   2.162   1.092   2.161   3.412   4.316   2.492   0.000
  10)     3.412   3.891   3.413   2.164   1.091   2.161   4.982   4.316   2.492   0.000
  11)     2.162   3.413   3.891   3.414   2.165   1.092   4.312   4.982   4.315   2.492
          0.000
  12)     1.092   2.164   3.414   3.890   3.414   2.164   2.489   4.314   4.981   4.313
          2.489   0.000

 Min. Distance =    1.0914
 Max. Distance =    4.9822



 =====================================
 S Y M M E T R Y ,   E L E C T R O N S
 =====================================
  
 Symmetry: NOSYM

 Irreducible Representations, including subspecies
 -------------------------------------------------
 A


 Configuration of Valence Electrons
 ==================================
 ( determined in the SCF procedure )

 Total:   42

 Net Charge: 0 (Nuclei minus Electrons)

 Aufbau principle for MO occupations will be applied through SCF cycle no.     150
 Thereafter, the program will assign electrons to MOs that are spatially
 similar to the occupied MOs in a "reference" cycle ("KeepOrbitals").
 The reference cycle is always the PREVIOUS cycle: it will evolve with
 the SCF procedure.
1
 ***************************************************************************************************



                                      ****************************************
                                      *  B U I L D : (Fragments, Functions)  *
                                      ****************************************
  



 =======
 S F O s  ***  (Symmetrized Fragment Orbitals)  ***
 =======
  
 SFOs are linear combinations of (valence) Fragment Orbitals (FOs), such that the SFOs transform as the
 irreducible representations of the (molecular) symmetry group. Each SFO is therefore characterized by
 an irrep of the molecule and by a few (or only one) generating FOs.
 The SFOs constitute a symmetry-adapted basis for the Fock matrix. The MO eigenvector coefficients in
 this basis provide a direct interpretation of the MOs in terms of Frontier Orbital Theory.

 The SFOs are combined with auxiliary Core Functions (CFs) to ensure orthogonalization on the (frozen)
 Core Orbitals (COs). The Core-orthogonalized SFOs (CSFOs) constitute the true Fock basis.

 The FOs, and hence also the (C)SFOs are combinations of the elementary basis functions (BAS). The basis
 functions that participate in the description of the SFOs depend on the irrep. The indices of the
 involved functions are printed below for each irrep.
 (The complete list of primitive basis functions is printed in another section)

 Total nr. of (C)SFOs (summation over all irreps) :   150

 NOTE: a (C)SFO that is defined as a combination of more than one FO is usually NOT normalized.



                                       === A ===
 Nr. of SFOs :  150
 Cartesian basis functions that participate in this irrep (total number =   156) :
      1     2     3     4     5     6     9    12     7    10
     13     8    11    14    15    16    17    18    19    20
     21    22    23    24    25    26    29    32    27    30
     33    28    31    34    35    36    37    38    39    40
     41    42    43    44    45    46    49    52    47    50
     53    48    51    54    55    56    57    58    59    60
     61    62    63    64    65    66    69    72    67    70
     73    68    71    74    75    76    77    78    79    80
     81    82    83    84    85    86    89    92    87    90
     93    88    91    94    95    96    97    98    99   100
    101   102   103   104   105   106   109   112   107   110
    113   108   111   114   115   116   117   118   119   120
    121   122   123   124   125   126   127   128   129   130
    131   132   133   134   135   136   137   138   139   140
    141   142   143   144   145   146   147   148   149   150
    151   152   153   154   155   156

    SFO  (index         Fragment          Generating    Expansion in Fragment Orbitals
  indx  incl.CFs)   Occup   Orb.Energy   FragmentType  Coeff.   Orbital     on Fragment
 --------------------------------------------------------------------------------------
     1       1      2.000     -10.058 au  C             1.00      1 S               1
                        (    -273.681 eV)
     2       2      2.000      -0.510 au  C             1.00      2 S               1
                        (     -13.876 eV)
     3       3       --         0.371 au  C             1.00      3 S               1
                        (      10.091 eV)
     4       4       --         5.428 au  C             1.00      4 S               1
                        (     147.707 eV)
     5       5       --        50.181 au  C             1.00      5 S               1
                        (    1365.486 eV)
     6       6      0.667      -0.199 au  C             1.00      1 P:x             1
                        (      -5.403 eV)
     7       7       --         0.173 au  C             1.00      2 P:x             1
                        (       4.709 eV)
     8       8       --         2.026 au  C             1.00      3 P:x             1
                        (      55.143 eV)
     9       9      0.667      -0.199 au  C             1.00      1 P:y             1
                        (      -5.403 eV)
    10      10       --         0.173 au  C             1.00      2 P:y             1
                        (       4.709 eV)
    11      11       --         2.026 au  C             1.00      3 P:y             1
                        (      55.143 eV)
    12      12      0.667      -0.199 au  C             1.00      1 P:z             1
                        (      -5.403 eV)
    13      13       --         0.173 au  C             1.00      2 P:z             1
                        (       4.709 eV)
    14      14       --         2.026 au  C             1.00      3 P:z             1
                        (      55.143 eV)
    15      15       --         1.232 au  C             1.00      1 D:z2            1
                        (      33.528 eV)
    16      16       --         1.232 au  C             1.00      1 D:x2-y2         1
                        (      33.528 eV)
    17      17       --         1.232 au  C             1.00      1 D:xy            1
                        (      33.528 eV)
    18      18       --         1.232 au  C             1.00      1 D:xz            1
                        (      33.528 eV)
    19      19       --         1.232 au  C             1.00      1 D:yz            1
                        (      33.528 eV)
    20      20      2.000     -10.058 au  C             1.00      1 S               2
                        (    -273.681 eV)
    21      21      2.000      -0.510 au  C             1.00      2 S               2
                        (     -13.876 eV)
    22      22       --         0.371 au  C             1.00      3 S               2
                        (      10.091 eV)
    23      23       --         5.428 au  C             1.00      4 S               2
                        (     147.707 eV)
    24      24       --        50.181 au  C             1.00      5 S               2
                        (    1365.486 eV)
    25      25      0.667      -0.199 au  C             1.00      1 P:x             2
                        (      -5.403 eV)
    26      26       --         0.173 au  C             1.00      2 P:x             2
                        (       4.709 eV)
    27      27       --         2.026 au  C             1.00      3 P:x             2
                        (      55.143 eV)
    28      28      0.667      -0.199 au  C             1.00      1 P:y             2
                        (      -5.403 eV)
    29      29       --         0.173 au  C             1.00      2 P:y             2
                        (       4.709 eV)
    30      30       --         2.026 au  C             1.00      3 P:y             2
                        (      55.143 eV)
    31      31      0.667      -0.199 au  C             1.00      1 P:z             2
                        (      -5.403 eV)
    32      32       --         0.173 au  C             1.00      2 P:z             2
                        (       4.709 eV)
    33      33       --         2.026 au  C             1.00      3 P:z             2
                        (      55.143 eV)
    34      34       --         1.232 au  C             1.00      1 D:z2            2
                        (      33.528 eV)
    35      35       --         1.232 au  C             1.00      1 D:x2-y2         2
                        (      33.528 eV)
    36      36       --         1.232 au  C             1.00      1 D:xy            2
                        (      33.528 eV)
    37      37       --         1.232 au  C             1.00      1 D:xz            2
                        (      33.528 eV)
    38      38       --         1.232 au  C             1.00      1 D:yz            2
                        (      33.528 eV)
    39      39      2.000     -10.058 au  C             1.00      1 S               3
                        (    -273.681 eV)
    40      40      2.000      -0.510 au  C             1.00      2 S               3
                        (     -13.876 eV)
    41      41       --         0.371 au  C             1.00      3 S               3
                        (      10.091 eV)
    42      42       --         5.428 au  C             1.00      4 S               3
                        (     147.707 eV)
    43      43       --        50.181 au  C             1.00      5 S               3
                        (    1365.486 eV)
    44      44      0.667      -0.199 au  C             1.00      1 P:x             3
                        (      -5.403 eV)
    45      45       --         0.173 au  C             1.00      2 P:x             3
                        (       4.709 eV)
    46      46       --         2.026 au  C             1.00      3 P:x             3
                        (      55.143 eV)
    47      47      0.667      -0.199 au  C             1.00      1 P:y             3
                        (      -5.403 eV)
    48      48       --         0.173 au  C             1.00      2 P:y             3
                        (       4.709 eV)
    49      49       --         2.026 au  C             1.00      3 P:y             3
                        (      55.143 eV)
    50      50      0.667      -0.199 au  C             1.00      1 P:z             3
                        (      -5.403 eV)
    51      51       --         0.173 au  C             1.00      2 P:z             3
                        (       4.709 eV)
    52      52       --         2.026 au  C             1.00      3 P:z             3
                        (      55.143 eV)
    53      53       --         1.232 au  C             1.00      1 D:z2            3
                        (      33.528 eV)
    54      54       --         1.232 au  C             1.00      1 D:x2-y2         3
                        (      33.528 eV)
    55      55       --         1.232 au  C             1.00      1 D:xy            3
                        (      33.528 eV)
    56      56       --         1.232 au  C             1.00      1 D:xz            3
                        (      33.528 eV)
    57      57       --         1.232 au  C             1.00      1 D:yz            3
                        (      33.528 eV)
    58      58      2.000     -10.058 au  C             1.00      1 S               4
                        (    -273.681 eV)
    59      59      2.000      -0.510 au  C             1.00      2 S               4
                        (     -13.876 eV)
    60      60       --         0.371 au  C             1.00      3 S               4
                        (      10.091 eV)
    61      61       --         5.428 au  C             1.00      4 S               4
                        (     147.707 eV)
    62      62       --        50.181 au  C             1.00      5 S               4
                        (    1365.486 eV)
    63      63      0.667      -0.199 au  C             1.00      1 P:x             4
                        (      -5.403 eV)
    64      64       --         0.173 au  C             1.00      2 P:x             4
                        (       4.709 eV)
    65      65       --         2.026 au  C             1.00      3 P:x             4
                        (      55.143 eV)
    66      66      0.667      -0.199 au  C             1.00      1 P:y             4
                        (      -5.403 eV)
    67      67       --         0.173 au  C             1.00      2 P:y             4
                        (       4.709 eV)
    68      68       --         2.026 au  C             1.00      3 P:y             4
                        (      55.143 eV)
    69      69      0.667      -0.199 au  C             1.00      1 P:z             4
                        (      -5.403 eV)
    70      70       --         0.173 au  C             1.00      2 P:z             4
                        (       4.709 eV)
    71      71       --         2.026 au  C             1.00      3 P:z             4
                        (      55.143 eV)
    72      72       --         1.232 au  C             1.00      1 D:z2            4
                        (      33.528 eV)
    73      73       --         1.232 au  C             1.00      1 D:x2-y2         4
                        (      33.528 eV)
    74      74       --         1.232 au  C             1.00      1 D:xy            4
                        (      33.528 eV)
    75      75       --         1.232 au  C             1.00      1 D:xz            4
                        (      33.528 eV)
    76      76       --         1.232 au  C             1.00      1 D:yz            4
                        (      33.528 eV)
    77      77      2.000     -10.058 au  C             1.00      1 S               5
                        (    -273.681 eV)
    78      78      2.000      -0.510 au  C             1.00      2 S               5
                        (     -13.876 eV)
    79      79       --         0.371 au  C             1.00      3 S               5
                        (      10.091 eV)
    80      80       --         5.428 au  C             1.00      4 S               5
                        (     147.707 eV)
    81      81       --        50.181 au  C             1.00      5 S               5
                        (    1365.486 eV)
    82      82      0.667      -0.199 au  C             1.00      1 P:x             5
                        (      -5.403 eV)
    83      83       --         0.173 au  C             1.00      2 P:x             5
                        (       4.709 eV)
    84      84       --         2.026 au  C             1.00      3 P:x             5
                        (      55.143 eV)
    85      85      0.667      -0.199 au  C             1.00      1 P:y             5
                        (      -5.403 eV)
    86      86       --         0.173 au  C             1.00      2 P:y             5
                        (       4.709 eV)
    87      87       --         2.026 au  C             1.00      3 P:y             5
                        (      55.143 eV)
    88      88      0.667      -0.199 au  C             1.00      1 P:z             5
                        (      -5.403 eV)
    89      89       --         0.173 au  C             1.00      2 P:z             5
                        (       4.709 eV)
    90      90       --         2.026 au  C             1.00      3 P:z             5
                        (      55.143 eV)
    91      91       --         1.232 au  C             1.00      1 D:z2            5
                        (      33.528 eV)
    92      92       --         1.232 au  C             1.00      1 D:x2-y2         5
                        (      33.528 eV)
    93      93       --         1.232 au  C             1.00      1 D:xy            5
                        (      33.528 eV)
    94      94       --         1.232 au  C             1.00      1 D:xz            5
                        (      33.528 eV)
    95      95       --         1.232 au  C             1.00      1 D:yz            5
                        (      33.528 eV)
    96      96      2.000     -10.058 au  C             1.00      1 S               6
                        (    -273.681 eV)
    97      97      2.000      -0.510 au  C             1.00      2 S               6
                        (     -13.876 eV)
    98      98       --         0.371 au  C             1.00      3 S               6
                        (      10.091 eV)
    99      99       --         5.428 au  C             1.00      4 S               6
                        (     147.707 eV)
   100     100       --        50.181 au  C             1.00      5 S               6
                        (    1365.486 eV)
   101     101      0.667      -0.199 au  C             1.00      1 P:x             6
                        (      -5.403 eV)
   102     102       --         0.173 au  C             1.00      2 P:x             6
                        (       4.709 eV)
   103     103       --         2.026 au  C             1.00      3 P:x             6
                        (      55.143 eV)
   104     104      0.667      -0.199 au  C             1.00      1 P:y             6
                        (      -5.403 eV)
   105     105       --         0.173 au  C             1.00      2 P:y             6
                        (       4.709 eV)
   106     106       --         2.026 au  C             1.00      3 P:y             6
                        (      55.143 eV)
   107     107      0.667      -0.199 au  C             1.00      1 P:z             6
                        (      -5.403 eV)
   108     108       --         0.173 au  C             1.00      2 P:z             6
                        (       4.709 eV)
   109     109       --         2.026 au  C             1.00      3 P:z             6
                        (      55.143 eV)
   110     110       --         1.232 au  C             1.00      1 D:z2            6
                        (      33.528 eV)
   111     111       --         1.232 au  C             1.00      1 D:x2-y2         6
                        (      33.528 eV)
   112     112       --         1.232 au  C             1.00      1 D:xy            6
                        (      33.528 eV)
   113     113       --         1.232 au  C             1.00      1 D:xz            6
                        (      33.528 eV)
   114     114       --         1.232 au  C             1.00      1 D:yz            6
                        (      33.528 eV)
   115     115      1.000      -0.244 au  H             1.00      1 S               7
                        (      -6.626 eV)
   116     116       --         0.093 au  H             1.00      2 S               7
                        (       2.536 eV)
   117     117       --         1.515 au  H             1.00      3 S               7
                        (      41.236 eV)
   118     118       --         0.400 au  H             1.00      1 P:x             7
                        (      10.872 eV)
   119     119       --         0.400 au  H             1.00      1 P:y             7
                        (      10.872 eV)
   120     120       --         0.400 au  H             1.00      1 P:z             7
                        (      10.872 eV)
   121     121      1.000      -0.244 au  H             1.00      1 S               8
                        (      -6.626 eV)
   122     122       --         0.093 au  H             1.00      2 S               8
                        (       2.536 eV)
   123     123       --         1.515 au  H             1.00      3 S               8
                        (      41.236 eV)
   124     124       --         0.400 au  H             1.00      1 P:x             8
                        (      10.872 eV)
   125     125       --         0.400 au  H             1.00      1 P:y             8
                        (      10.872 eV)
   126     126       --         0.400 au  H             1.00      1 P:z             8
                        (      10.872 eV)
   127     127      1.000      -0.244 au  H             1.00      1 S               9
                        (      -6.626 eV)
   128     128       --         0.093 au  H             1.00      2 S               9
                        (       2.536 eV)
   129     129       --         1.515 au  H             1.00      3 S               9
                        (      41.236 eV)
   130     130       --         0.400 au  H             1.00      1 P:x             9
                        (      10.872 eV)
   131     131       --         0.400 au  H             1.00      1 P:y             9
                        (      10.872 eV)
   132     132       --         0.400 au  H             1.00      1 P:z             9
                        (      10.872 eV)
   133     133      1.000      -0.244 au  H             1.00      1 S              10
                        (      -6.626 eV)
   134     134       --         0.093 au  H             1.00      2 S              10
                        (       2.536 eV)
   135     135       --         1.515 au  H             1.00      3 S              10
                        (      41.236 eV)
   136     136       --         0.400 au  H             1.00      1 P:x            10
                        (      10.872 eV)
   137     137       --         0.400 au  H             1.00      1 P:y            10
                        (      10.872 eV)
   138     138       --         0.400 au  H             1.00      1 P:z            10
                        (      10.872 eV)
   139     139      1.000      -0.244 au  H             1.00      1 S              11
                        (      -6.626 eV)
   140     140       --         0.093 au  H             1.00      2 S              11
                        (       2.536 eV)
   141     141       --         1.515 au  H             1.00      3 S              11
                        (      41.236 eV)
   142     142       --         0.400 au  H             1.00      1 P:x            11
                        (      10.872 eV)
   143     143       --         0.400 au  H             1.00      1 P:y            11
                        (      10.872 eV)
   144     144       --         0.400 au  H             1.00      1 P:z            11
                        (      10.872 eV)
   145     145      1.000      -0.244 au  H             1.00      1 S              12
                        (      -6.626 eV)
   146     146       --         0.093 au  H             1.00      2 S              12
                        (       2.536 eV)
   147     147       --         1.515 au  H             1.00      3 S              12
                        (      41.236 eV)
   148     148       --         0.400 au  H             1.00      1 P:x            12
                        (      10.872 eV)
   149     149       --         0.400 au  H             1.00      1 P:y            12
                        (      10.872 eV)
   150     150       --         0.400 au  H             1.00      1 P:z            12
                        (      10.872 eV)



 ================================
 (Slater-type)  F U N C T I O N S  ***  (Basis and Fit)  ***
 ================================
  

 Atom Type    1  (C)
 ==============

 Valence Basis Sets:   9
 -----------------------
   1 S    7.680000
   1 S    5.000000
   2 S    1.280000
   2 S    2.100000
   2 S    4.600000
   2 P    0.820000
   2 P    1.480000
   2 P    2.940000
   3 D    2.200000

 Atom Type    2  (H)
 ==============

 Valence Basis Sets:   4
 -----------------------
   1 S    0.690000
   1 S    0.920000
   1 S    1.580000
   2 P    1.250000


 BAS: List of all Elementary Cartesian Basis Functions
 =====================================================

 The numbering in the list below (to the right of the function characteristics) is referred
 to in print-outs of MO eigenvectors and Mulliken populations in the BAS representation
 (as contrasted to the SFO representation).

 Notes:
 1. The functions are characterized by a polynomial prefactor (powers of x,y,z and r) and
    an exponential decay factor alpha.
 2. Since the basis sets are specific for an atom TYPE, the individual functions occur on
    all atoms of that type.
 3. The word 'Core' in the left margin signals that it is a Core Function (CF) : not a
    degree of freedom in the valence set, but only used to ensure orthogonalization of
    the other valence basis functions on the frozen Core Orbitals.


 (power of) X  Y  Z  R     Alpha  on Atom
            ==========     =====     ==========

 C                                    1    2    3    4    5    6
                                  ---------------------------------------------------------------------------
            0  0  0  0     7.680      1   21   41   61   81  101
            0  0  0  0     5.000      2   22   42   62   82  102
            0  0  0  1     1.280      3   23   43   63   83  103
            0  0  0  1     2.100      4   24   44   64   84  104
            0  0  0  1     4.600      5   25   45   65   85  105
            1  0  0  0     0.820      6   26   46   66   86  106
            0  1  0  0     0.820      7   27   47   67   87  107
            0  0  1  0     0.820      8   28   48   68   88  108
            1  0  0  0     1.480      9   29   49   69   89  109
            0  1  0  0     1.480     10   30   50   70   90  110
            0  0  1  0     1.480     11   31   51   71   91  111
            1  0  0  0     2.940     12   32   52   72   92  112
            0  1  0  0     2.940     13   33   53   73   93  113
            0  0  1  0     2.940     14   34   54   74   94  114
            2  0  0  0     2.200     15   35   55   75   95  115
            1  1  0  0     2.200     16   36   56   76   96  116
            1  0  1  0     2.200     17   37   57   77   97  117
            0  2  0  0     2.200     18   38   58   78   98  118
            0  1  1  0     2.200     19   39   59   79   99  119
            0  0  2  0     2.200     20   40   60   80  100  120

 H                                    7    8    9   10   11   12
                                  ---------------------------------------------------------------------------
            0  0  0  0     0.690    121  127  133  139  145  151
            0  0  0  0     0.920    122  128  134  140  146  152
            0  0  0  0     1.580    123  129  135  141  147  153
            1  0  0  0     1.250    124  130  136  142  148  154
            0  1  0  0     1.250    125  131  137  143  149  155
            0  0  1  0     1.250    126  132  138  144  150  156

 Total number of charge fitting functions (nprimf)       804
 Total number of Cartesian basis functions (naos)        156
 Total number of Cartesian core functions  (ncos)          0

1
 ***************************************************************************************************



                                              ***********************
                                              *  T E C H N I C A L  *
                                              ***********************
  



 =============================================================
 P A R A L L E L I Z A T I O N  and  V E C T O R I Z A T I O N
 =============================================================
  
 Nr of parallel processes:                                6
 Maximum vector length in NumInt loops:                 128



 =====================
 S C F   U P D A T E S
 =====================
  
 Max. nr. of cycles:                               300
 Convergence criterion:                              0.0000010000
   secondary criterion:                              0.0010000000

 Mix parameter (when DIIS does not apply):           0.2000000000
 Mixed ADIIS+SDIIS will be used                  
    Max number of expansion vectors:                10
    Pure ADIIS when Max([F,P]) is above              0.1000000000
    Pure SDIIS when Max([F,P]) is below              0.0010000000
 Automatic ElectronSmearing (in case of problematic SCF convergence) disabled



 =================
 P R E C I S I O N  ***  (General: NumInt, NeglectFunctionTails, ...)  ***
 =================
  

 NumInt:           Target precision:                 4.0000000000
 -------           Initial precision:                4.0000000000
                   Min. precision (optimization):    4.0000000000

 Neglect Functions:          Basis functions:        0.1000000000E-13
 ------------------          Fit functions:          0.1000000000E-13



 ===========================
 L I N E A R   S C A L I N G
 ===========================
  

 Cut-off radii density fit:                        0.1000000000E-07
 Overlap cut-off criterion AO matrix elements:     0.1000000000E-05
 Cut-offs for Coulomb potential and fitted density:0.1000000000E-07
 Cut-off criterion for Coulomb multipole terms:    0.1000000000E-07
 Progressive Convergence parameter:                 0.000000000    
1
 ***************************************************************************************************



                                            ***************************
                                            *  C O M P U T A T I O N  *
                                            ***************************
  

 Number of elements of the density matrix on this node (used, total):      1962     12246



 ===========================================
 Numerical Integration : Fuzzy Cells (Becke)
 ===========================================
  
 Becke grid quality: NORMAL         
  
 Lebedev angular grid order:             min:  11 max:  23
 Nr. of radial points:                   min:  46 max:  52

 Total nr. of points:      75660
 Nr. of blocks:              592
 Block length:               128
 Nr. of dummy points:        116


 Test of Precision of the Numerical Integration Grid
 ===================================================

 Integral of the Total Core Density:                   0.00000000000000



 ========================
 Density Fitting (zlmFit)
 ========================
  
 ZlmFit Fit Quality: NORMAL         
  
 Max L-expansion:                        min:   5 max:   6
 Nr. of radial interpolation points:     min:  36 max:  48



 =====
 S C F  ***  ScaSCF  ***
 =====
  
 Initial density matrix is calculated as sum of fragments

 CYCLE    1
 SCF Error: norm([F,P])=      5.990938472134, max([F,P])=      0.980777038285
 orbitals (Q,E):
 ---------------
 A :12...31          ( 2.00    -0.6583)  ( 2.00    -0.6250)  ( 2.00    -0.5884)  ( 2.00    -0.5691)
                     ( 2.00    -0.5689)  ( 2.00    -0.5031)  ( 2.00    -0.5016)  ( 2.00    -0.5015)
                     ( 2.00    -0.4055)  ( 2.00    -0.4055)  ( 0.00    -0.2151)  ( 0.00    -0.2151)
                     ( 0.00    -0.0768)  ( 0.00    -0.0731)  ( 0.00    -0.0375)  ( 0.00    -0.0375)
                     ( 0.00    -0.0111)  ( 0.00    -0.0111)  ( 0.00     0.0270)  ( 0.00     0.0510)

 CYCLE    2
   MIX coefficients:  0.8000  0.2000
 SCF Error: norm([F,P])=      0.892327716416, max([F,P])=      0.187491573103
 orbitals (Q,E):
 ---------------
 A :12...22          ( 2.00    -0.5946)  ( 2.00    -0.5421)  ( 2.00    -0.5328)  ( 2.00    -0.5022)
                     ( 2.00    -0.5020)  ( 2.00    -0.4366)  ( 2.00    -0.4344)  ( 2.00    -0.4343)
                     ( 2.00    -0.3389)  ( 2.00    -0.3388)  ( 0.00    -0.1501)

 CYCLE    3
  SDIIS (wt  0.000): -1.2669  2.2669
 A-DIIS (wt  1.000):  0.0000  1.0000
  DIIS coefficients:  0.0000  1.0000
 SCF Error: norm([F,P])=      0.521452960023, max([F,P])=      0.102715451339
 orbitals (Q,E):
 ---------------
 A :12...22          ( 2.00    -0.3985)  ( 2.00    -0.3564)  ( 2.00    -0.2966)  ( 2.00    -0.2964)
                     ( 2.00    -0.2951)  ( 2.00    -0.2475)  ( 2.00    -0.2227)  ( 2.00    -0.2227)
                     ( 2.00    -0.1499)  ( 2.00    -0.1498)  ( 0.00     0.0285)

 CYCLE    4
  SDIIS (wt  0.000):  0.1837  0.3521  0.4642
 A-DIIS (wt  1.000): -0.0000  0.6402  0.3598
  DIIS coefficients: -0.0000  0.6402  0.3598
 SCF Error: norm([F,P])=      0.743253045844, max([F,P])=      0.172886289102
 orbitals (Q,E):
 ---------------
 A :12...22          ( 2.00    -0.4673)  ( 2.00    -0.4037)  ( 2.00    -0.3933)  ( 2.00    -0.3709)
                     ( 2.00    -0.3706)  ( 2.00    -0.3293)  ( 2.00    -0.2970)  ( 2.00    -0.2969)
                     ( 2.00    -0.2286)  ( 2.00    -0.2286)  ( 0.00    -0.0404)

 CYCLE    5
  SDIIS (wt  0.901): -0.0173  0.2160  0.0732  0.7280
 A-DIIS (wt  0.099):  0.0000  0.0000  0.0000  1.0000
  DIIS coefficients: -0.0156  0.1946  0.0660  0.7550
 SCF Error: norm([F,P])=      0.076226806583, max([F,P])=      0.010812753090
 orbitals (Q,E):
 ---------------
 A :12...22          ( 2.00    -0.4793)  ( 2.00    -0.4187)  ( 2.00    -0.4084)  ( 2.00    -0.3828)
                     ( 2.00    -0.3825)  ( 2.00    -0.3380)  ( 2.00    -0.3110)  ( 2.00    -0.3109)
                     ( 2.00    -0.2384)  ( 2.00    -0.2383)  ( 0.00    -0.0510)

 CYCLE    6
  SDIIS (wt  0.992): -0.0028  0.0317  0.0084  0.1935  0.7693
 A-DIIS (wt  0.008):  0.0000  0.0000  0.0000  0.0000  1.0000
  DIIS coefficients: -0.0028  0.0314  0.0083  0.1919  0.7712
 SCF Error: norm([F,P])=      0.010803916095, max([F,P])=      0.001814536839
 orbitals (Q,E):
 ---------------
 A :12...22          ( 2.00    -0.4790)  ( 2.00    -0.4180)  ( 2.00    -0.4074)  ( 2.00    -0.3826)
                     ( 2.00    -0.3824)  ( 2.00    -0.3374)  ( 2.00    -0.3104)  ( 2.00    -0.3103)
                     ( 2.00    -0.2377)  ( 2.00    -0.2376)  ( 0.00    -0.0502)

 CYCLE    7
  SDIIS (wt  1.000): -0.0006  0.0131  0.0032  0.0870  0.3693  0.5280
  DIIS coefficients: -0.0006  0.0131  0.0032  0.0870  0.3693  0.5280
 SCF Error: norm([F,P])=      0.002384672053, max([F,P])=      0.000599578136
 orbitals (Q,E):
 ---------------
 A :12...22          ( 2.00    -0.4791)  ( 2.00    -0.4181)  ( 2.00    -0.4075)  ( 2.00    -0.3826)
                     ( 2.00    -0.3824)  ( 2.00    -0.3375)  ( 2.00    -0.3105)  ( 2.00    -0.3104)
                     ( 2.00    -0.2378)  ( 2.00    -0.2377)  ( 0.00    -0.0503)

 CYCLE    8
  SDIIS (wt  1.000):  0.0007  0.0010  0.0001  0.0148  0.0806  0.4554  0.4475
  DIIS coefficients:  0.0007  0.0010  0.0001  0.0148  0.0806  0.4554  0.4475
 SCF Error: norm([F,P])=      0.002027846919, max([F,P])=      0.000493647859
 orbitals (Q,E):
 ---------------
 A :12...22          ( 2.00    -0.4791)  ( 2.00    -0.4181)  ( 2.00    -0.4075)  ( 2.00    -0.3827)
                     ( 2.00    -0.3825)  ( 2.00    -0.3376)  ( 2.00    -0.3105)  ( 2.00    -0.3105)
                     ( 2.00    -0.2379)  ( 2.00    -0.2378)  ( 0.00    -0.0504)

 CYCLE    9
  SDIIS (wt  1.000):  0.0002 -0.0001 -0.0000  0.0013  0.0088  0.0678  0.0806  0.8414
  DIIS coefficients:  0.0002 -0.0001 -0.0000  0.0013  0.0088  0.0678  0.0806  0.8414
 SCF Error: norm([F,P])=      0.000084383588, max([F,P])=      0.000021247953
 orbitals (Q,E):
 ---------------
 A :12...22          ( 2.00    -0.4791)  ( 2.00    -0.4181)  ( 2.00    -0.4076)  ( 2.00    -0.3827)
                     ( 2.00    -0.3825)  ( 2.00    -0.3376)  ( 2.00    -0.3105)  ( 2.00    -0.3105)
                     ( 2.00    -0.2379)  ( 2.00    -0.2378)  ( 0.00    -0.0504)

 CYCLE   10
  SDIIS (wt  1.000):  0.0001 -0.0001 -0.0000 -0.0003 -0.0006  0.0070  0.0164  0.5840  0.3937
  DIIS coefficients:  0.0001 -0.0001 -0.0000 -0.0003 -0.0006  0.0070  0.0164  0.5840  0.3937
 SCF Error: norm([F,P])=      0.000103476561, max([F,P])=      0.000025801209
 orbitals (Q,E):
 ---------------
 A :12...22          ( 2.00    -0.4791)  ( 2.00    -0.4181)  ( 2.00    -0.4076)  ( 2.00    -0.3827)
                     ( 2.00    -0.3825)  ( 2.00    -0.3376)  ( 2.00    -0.3105)  ( 2.00    -0.3105)
                     ( 2.00    -0.2379)  ( 2.00    -0.2378)  ( 0.00    -0.0504)

 CYCLE   11
  SDIIS (wt  1.000):  0.0000 -0.0000 -0.0000  0.0000 -0.0000 -0.0001 -0.0002 -0.0041  0.0025  1.0019
  DIIS coefficients:  0.0000 -0.0000 -0.0000  0.0000 -0.0000 -0.0001 -0.0002 -0.0041  0.0025  1.0019
 SCF Error: norm([F,P])=      0.000001314719, max([F,P])=      0.000000350059
 orbitals (Q,E):
 ---------------
 A :12...22          ( 2.00    -0.4791)  ( 2.00    -0.4181)  ( 2.00    -0.4076)  ( 2.00    -0.3827)
                     ( 2.00    -0.3825)  ( 2.00    -0.3376)  ( 2.00    -0.3105)  ( 2.00    -0.3105)
                     ( 2.00    -0.2379)  ( 2.00    -0.2378)  ( 0.00    -0.0504)

 SCF CONVERGED

 CYCLE   12
1
 ***************************************************************************************************



                                                *******************
                                                *  R E S U L T S  *
                                                *******************
  
 *** Using FIT density in Focky
  SDIIS (wt  1.000): -0.0000 -0.0000  0.0000 -0.0000 -0.0001 -0.0002 -0.0065 -0.0016  0.5123  0.4963
  DIIS coefficients: -0.0000 -0.0000  0.0000 -0.0000 -0.0001 -0.0002 -0.0065 -0.0016  0.5123  0.4963
 SCF Error: norm([F,P])=      0.000000312570, max([F,P])=      0.000000083002

 Orbital Energies, per Irrep and Spin:
 ======================================
                        Occup              E (au)              E (eV)       Diff (eV) with prev. cycle
                        -----      --------------------        ------       --------------------------
 A
              12        2.000     -0.47913328495783E+00       -13.038               6.33E-08
              13        2.000     -0.41811010732385E+00       -11.377               8.92E-08
              14        2.000     -0.40755371050549E+00       -11.090               6.83E-08
              15        2.000     -0.38269213795204E+00       -10.414               4.92E-08
              16        2.000     -0.38246859255469E+00       -10.407               6.83E-08
              17        2.000     -0.33758043820115E+00        -9.186               3.05E-08
              18        2.000     -0.31053645743370E+00        -8.450               7.28E-08
              19        2.000     -0.31046206650066E+00        -8.448               7.31E-08
              20        2.000     -0.23788079588864E+00        -6.473               2.34E-08
              21        2.000     -0.23782149437601E+00        -6.471               4.92E-08
              22        0.000     -0.50384366889663E-01        -1.371
              23        0.000     -0.50334643208916E-01        -1.370
              24        0.000      0.20342604066649E-02         0.055
              25        0.000      0.27838113287636E-01         0.758
              26        0.000      0.27862431064654E-01         0.758
              27        0.000      0.60712165645056E-01         1.652
              28        0.000      0.60761931000245E-01         1.653
              29        0.000      0.90659431434052E-01         2.467
              30        0.000      0.96118680950689E-01         2.616
              31        0.000      0.14212247522941E+00         3.867
  
 HOMO :       21 A                -0.23782149437601E+00
 LUMO :       22 A                -0.50384366889663E-01
  


 All Electron Calculation, thus no Orbital Energies of the Core Orbitals are calculated


 Fit test: (difference of exact and fit density, squared integrated, result summed over spins)
         Sum-of-Fragments:                             0.00000000048365
         Orthogonalized Fragments:                     0.00013298961975
         SCF:                                          0.00048707669227



 ==========================
 Electron Density at Nuclei
 ==========================
  
 The electron density is calculated at points on a small sphere around the center of a nucleus.
 The printed electron density is the average electron density on these points.
 The radius of the sphere is the printed approximate finite nuclear radius.

         Atom        Nuclear Radius (Angstrom)             Electron Density (a.u.)
         ----        -------------------------             -----------------------
     1)   C                 0.0000320678                              126.51447
     2)   C                 0.0000320678                              126.51572
     3)   C                 0.0000320678                              126.51458
     4)   C                 0.0000320678                              126.51437
     5)   C                 0.0000320678                              126.51568
     6)   C                 0.0000320678                              126.51467
     7)   H                 0.0000181514                                0.49870
     8)   H                 0.0000181514                                0.49874
     9)   H                 0.0000181514                                0.49873
    10)   H                 0.0000181514                                0.49878
    11)   H                 0.0000181514                                0.49858
    12)   H                 0.0000181514                                0.49856



 =======================================
 M U L L I K E N   P O P U L A T I O N S
 =======================================
  
 The survey below gives for each atom:
 a) the total charge (Z minus electrons)
 b) the net spin polarization (nr of electrons spin-A minus spin-B)
 c) for each spin the atomic electron valence density (integrated) per L-value.

 Atom              Charge    Spin density          S         P         D         F
 ----              ------    ------------       ------    ------    ------    ------
 1 C               0.1755                       3.0657    2.6979    0.0608    0.0000
 2 C               0.1758                       3.0653    2.6980    0.0609    0.0000
 3 C               0.1754                       3.0645    2.6990    0.0610    0.0000
 4 C               0.1752                       3.0642    2.6995    0.0611    0.0000
 5 C               0.1756                       3.0646    2.6987    0.0610    0.0000
 6 C               0.1756                       3.0654    2.6981    0.0609    0.0000
 7 H              -0.1759                       1.1045    0.0715    0.0000    0.0000
 8 H              -0.1757                       1.1043    0.0714    0.0000    0.0000
 9 H              -0.1751                       1.1038    0.0714    0.0000    0.0000
 10 H             -0.1759                       1.1045    0.0714    0.0000    0.0000
 11 H             -0.1756                       1.1042    0.0714    0.0000    0.0000
 12 H             -0.1750                       1.1036    0.0714    0.0000    0.0000

 Populations of individual BAS functions
 ----------------------------------------
 1 C            0.4869  1.5145  0.2306  0.8872 -0.0535 -0.1038  0.1479 -0.2374  0.8054  0.6775
                0.8820  0.1999  0.1365  0.1898  0.0267  0.0121  0.0174 -0.0175  0.0040  0.0181
 2 C            0.4870  1.5144  0.2301  0.8873 -0.0535 -0.2012  0.1474 -0.1408  0.8614  0.6779
                0.8270  0.1925  0.1366  0.1973  0.0180  0.0062  0.0221 -0.0175  0.0100  0.0222
 3 C            0.4870  1.5144  0.2293  0.8873 -0.0535 -0.2083  0.1471 -0.1333  0.8654  0.6783
                0.8230  0.1923  0.1367  0.1977  0.0181  0.0059  0.0216 -0.0175  0.0103  0.0227
 4 C            0.4870  1.5144  0.2290  0.8873 -0.0535 -0.1028  0.1470 -0.2382  0.8054  0.6785
                0.8826  0.2003  0.1367  0.1899  0.0269  0.0122  0.0174 -0.0175  0.0040  0.0180
 5 C            0.4870  1.5144  0.2294  0.8874 -0.0535 -0.2037  0.1471 -0.1383  0.8628  0.6783
                0.8259  0.1927  0.1367  0.1973  0.0182  0.0062  0.0220 -0.0176  0.0100  0.0221
 6 C            0.4869  1.5145  0.2303  0.8873 -0.0535 -0.2061  0.1476 -0.1356  0.8641  0.6778
                0.8240  0.1921  0.1366  0.1977  0.0178  0.0059  0.0216 -0.0175  0.0103  0.0227
 7 H            0.2097  0.5759  0.3188  0.0288  0.0217  0.0209
 8 H            0.2094  0.5760  0.3189  0.0295  0.0217  0.0202
 9 H            0.2087  0.5761  0.3189  0.0162  0.0217  0.0334
 10 H           0.2098  0.5758  0.3189  0.0289  0.0217  0.0208
 11 H           0.2092  0.5763  0.3187  0.0294  0.0217  0.0203
 12 H           0.2083  0.5764  0.3189  0.0162  0.0217  0.0334

 Gross Charges per Atom (Z minus electrons)
 ==========================================
             0.1755    0.1758    0.1754    0.1752    0.1756    0.1756   -0.1759   -0.1757   -0.1751   -0.1759
            -0.1756   -0.1750
 Net Total:  0.00000000


 Atom-Atom Population Matrix (off-diagonal elements not doubled)
 ===============================================================

     1 :     4.5240
     2 :     0.5412    4.5227
     3 :    -0.0109    0.5418    4.5217
     4 :    -0.0557   -0.0102    0.5423    4.5218
     5 :    -0.0109   -0.0555   -0.0101    0.5422    4.5218
     6 :     0.5413   -0.0113   -0.0555   -0.0104    0.5417    4.5230
     7 :    -0.0536    0.3939   -0.0535    0.0021    0.0041    0.0023    0.9821
     8 :     0.0023   -0.0536    0.3939   -0.0537    0.0020    0.0041   -0.0476    0.9820
     9 :     0.0041    0.0020   -0.0535    0.3939   -0.0535    0.0021   -0.0039   -0.0475    0.9810
    10 :     0.0023    0.0041    0.0020   -0.0537    0.3939   -0.0536    0.0015   -0.0039   -0.0475    0.9822
    11 :    -0.0536    0.0023    0.0041    0.0021   -0.0534    0.3939   -0.0038    0.0015   -0.0039   -0.0476
             0.9817
    12 :     0.3939   -0.0532    0.0022    0.0041    0.0022   -0.0533   -0.0477   -0.0038    0.0016   -0.0038
            -0.0477    0.9806



 =================================================
 H I R S H F E L D   C H A R G E   A N A L Y S I S
 =================================================
  
 For each fragment: the (numerical) integral of rho(scf) * rho(fragment)/rho(sum-of-fragments)
 (nuclear charges are included, electrons are counted negative)

 The fragments and their ordering are defined in the early G E O M E T R Y output section.
 If you use single-atom fragments, this usually implies that all atoms of the same
 chemical type are grouped together. This may not be the order in which you listed them
 in the input file!

    1  C                        -0.0463
    2  C                        -0.0463
    3  C                        -0.0463
    4  C                        -0.0462
    5  C                        -0.0463
    6  C                        -0.0463
    7  H                         0.0463
    8  H                         0.0463
    9  H                         0.0463
   10  H                         0.0464
   11  H                         0.0463
   12  H                         0.0462

 Sum of these charges (accuracy NumInt/Tails) =          -0.00005969



 =============================
 V O R O N O I   C H A R G E S
 =============================
  
 For each atom: the (numerical) integral of the total electronic charge density in its Voronoi cell,
 i.e. the region of space that is closer to that atom than to any other atom.
 (cf. Wigner-Seitz cells in crystals)

 Within the Voronoi cell the subintegrals over the atomic sphere and the remaining part are evaluated
 separately to give the numbers of electrons (negative charge) in these regions.
 The net total charge in the cell (including the nuclear charge) is also given.

 Values are provided for
    a) the Initial (sum-of-fragments) density
    b) the Orthogonalized-Fragments density
    c) the SCF density
    d) the Voronoi Deformation Density (VDD): the difference SCF-Initial for the complete atomic cell


  Atom                Initial                    OrthFrag                   SCF
             Sphere RestCell NetTotal   Sphere RestCell NetTotal   Sphere RestCell NetTotal      VDD
 -----       ------------------------   ------------------------   ------------------------    -----
    1 C      -2.268   -3.186    0.546   -2.452   -3.138    0.411   -2.303   -3.207    0.490   -0.056
    2 C      -2.268   -3.193    0.538   -2.452   -3.139    0.409   -2.303   -3.210    0.488   -0.051
    3 C      -2.269   -3.183    0.548   -2.452   -3.137    0.411   -2.303   -3.206    0.491   -0.057
    4 C      -2.269   -3.184    0.547   -2.452   -3.136    0.412   -2.303   -3.205    0.492   -0.055
    5 C      -2.269   -3.191    0.540   -2.452   -3.138    0.410   -2.303   -3.208    0.489   -0.051
    6 C      -2.269   -3.186    0.545   -2.452   -3.140    0.408   -2.303   -3.209    0.488   -0.057
    7 H      -0.075   -1.471   -0.545   -0.096   -1.316   -0.412   -0.109   -1.382   -0.491    0.054
    8 H      -0.075   -1.470   -0.545   -0.096   -1.314   -0.410   -0.109   -1.380   -0.489    0.056
    9 H      -0.075   -1.469   -0.543   -0.096   -1.314   -0.410   -0.109   -1.381   -0.490    0.054
   10 H      -0.075   -1.475   -0.549   -0.096   -1.318   -0.414   -0.109   -1.385   -0.494    0.056
   11 H      -0.075   -1.468   -0.542   -0.096   -1.312   -0.407   -0.109   -1.378   -0.487    0.056
   12 H      -0.075   -1.465   -0.540   -0.096   -1.312   -0.408   -0.109   -1.379   -0.487    0.053
 ---------------------------------------------------------------------------------------------------
 Total NetCharge:              -0.000                     -0.000                     -0.000    0.000
 (accuracy NumInt/Tails)

 Remark: the 'NetTotal' Voronoi charges often do not match the Mulliken and/or Hirshfeld charges very
 well. This is caused by the fact that chemically different atoms are not treated in accordance with
 their relative sizes. (Voronoi cells are defined by boundary planes halfway between the atoms.)
 However, the CHANGES in charge, comparing 'Initial' to 'SCF' for instance, do give a fair indication
 of the flow of charge caused by the relaxation from sum-of-fragments to self-consistency.

 Warning: the absolute accuracy of the VDD charges obtained using the Fuzzy Cells (Becke) integration
 scheme is much poorer than the one obtained with an 'equivalent' Voronoi integration grid. 



 =================================================================
 M U L T I P O L E   D E R I V E D   C H A R G E   A N A L Y S I S
 =================================================================

 This charge analysis uses the atomic multipoles (obtained from the fitted density) up to some level X,
 and reconstructs these multipoles exactly (up to level X) by distributing charges over all atoms.
 This is achieved by using Lagrange multipliers and a weight function to keep the multipoles local.

 Dummy atoms can be included (by setting INCDUM in MDC-block to 1) to obtain a fractional charge.
 This is generally useful and necessary only for small symmetrical molecules, when there are not
 enough degrees of freedom to reconstruct the multipoles.

 Since the atomic multipoles are reconstructed up to level X,
 the molecular multipoles are represented also up to level X.
 The recommended level is to reconstruct up to quadrupole : -> MDC-q charges.

 See: M. Swart, P.Th. van Duijnen, J.G. Snijders, J.Comput.Chem., (2001), p. 79-88.

 ------------------------------------------------------------- 
 Atomic electronic multipole moments from SCF equations (a.u.)
 ------------------------------------------------------------- 

   atom        charge        dip-x     dip-y     dip-z      quad-xx   quad-xy   quad-xz   quad-yy   quad-yz   quad-zz
 --------------------------------------------------------------------------------------------------------------------
    1 C      0.060674     0.001002  0.000000 -0.047508     0.468714 -0.000000 -0.000889 -0.997261 -0.000000  0.528547
    2 C      0.060376    -0.042119  0.000000 -0.025841     0.506741 -0.000000  0.015822 -0.994126 -0.000000  0.487385
    3 C      0.060696    -0.042356 -0.000000  0.023178     0.513955 -0.000000 -0.013985 -0.994511  0.000000  0.480557
    4 C      0.061056    -0.000984  0.000000  0.046751     0.469102 -0.000000 -0.000640 -0.996002  0.000000  0.526900
    5 C      0.060535     0.042013 -0.000000  0.025382     0.510744 -0.000000  0.013968 -0.993539  0.000000  0.482796
    6 C      0.060481     0.042548  0.000000 -0.023629     0.510690 -0.000000 -0.015994 -0.995247 -0.000000  0.484557
    7 H     -0.060625    -0.019187  0.000000 -0.012353     0.159440  0.000000  0.080806 -0.195456 -0.000000  0.036016
    8 H     -0.060620    -0.020045  0.000000  0.010489     0.171394 -0.000000 -0.076303 -0.195562 -0.000000  0.024169
    9 H     -0.060678    -0.000453  0.000000  0.022574    -0.038713  0.000000 -0.003826 -0.194684 -0.000000  0.233397
   10 H     -0.060625     0.019715  0.000000  0.011367     0.161155 -0.000000  0.080217 -0.195287  0.000000  0.034132
   11 H     -0.060604     0.019631  0.000000 -0.011431     0.169920  0.000000 -0.076925 -0.195778 -0.000000  0.025858
   12 H     -0.060666     0.000524  0.000000 -0.022682    -0.038417  0.000000 -0.003910 -0.195101  0.000000  0.233517

 --------------------------------------- 
 Multipole derived atomic charges (a.u.)
 --------------------------------------- 

 The MDC-m charges are just the Monopole terms in the multipole expansion, while for the MDC-d charges
 also the Dipoles are reconstructed. The usually preferred charges are the MDC-q charges.
 These reconstruct the Monopoles, Dipoles and Quadrupoles (both atomic AND molecular).

        Atom    Level:     MDC-m        MDC-d        MDC-q
 ---------------------------------------------------------
     1     C            0.060674     0.034791    -0.126753
     2     C            0.060376     0.034442    -0.128384
     3     C            0.060696     0.034726    -0.127423
     4     C            0.061056     0.035059    -0.125214
     5     C            0.060535     0.034556    -0.127723
     6     C            0.060481     0.034565    -0.128239
     7     H           -0.060625    -0.034273     0.127777
     8     H           -0.060620    -0.034745     0.127357
     9     H           -0.060678    -0.035277     0.126327
    10     H           -0.060625    -0.034448     0.127641
    11     H           -0.060604    -0.034517     0.127548
    12     H           -0.060666    -0.034880     0.127086

 ------------------------------------------------ 
 Average absolute deviations in atomic multipoles
 ------------------------------------------------ 

 Stated here are the average differences between the atomic multipoles
 and the reconstructed atomic multipoles (from the distributed charges).
 If these values are not zero, this means there are not enough degrees of freedom,
 to be able to reconstruct the atomic multipoles. (This usually happens only
 for small and/or highly symmetric molecules). If this is the case, one could add
 dummy atoms as extra point charges (and setting INCDUM in MDC-block to 1).

 Level:                                 MDC-d        MDC-q
 ---------------------------------------------------------
 Charge   (a.u.)                       0.0000       0.0000
 Dipole   (Debye)                      0.0000       0.0000
 Quad.    (a.u.)                       0.2134       0.0000

 --------------------------------------- 
 Represented molecular multipole moments
 --------------------------------------- 

 Given here are the Molecular multipole moments from the atomic charges, and from the Fit Density.
 Note that the atomic charges represent the latter, NOT the ones from the Exact density.

            Q (a.u.)             Dipole moment (Debye)                                          Quadrupole moment (a.u.)
                                 x         y         z              xx        xy        xz        yy        yz        zz
------------------------------------------------------------------------------------------------------------------------
MDC-m        -0.0000       -0.0005   -0.0000    0.0068         -1.3797   -0.0024   -0.0014    2.7586    0.0305   -1.3790
MDC-d        -0.0000        0.0002   -0.0000   -0.0026         -0.7729    0.0009    0.0073    1.5782   -0.0115   -0.8053
MDC-q        -0.0000        0.0002   -0.0000   -0.0026          2.9008    0.0009    0.0052   -5.7910   -0.0115    2.8902
 
Fit.Dens.    -0.0000        0.0002    0.0000   -0.0026          2.9008    0.0009    0.0044   -5.7910   -0.0115    2.8902



 =============
 Dipole Moment  ***  (Debye)  ***
 =============
  
 Vector   :         0.00017332     -0.00000013     -0.00254072
 Magnitude:         0.00254663

 This molecular dipole moment is calculated with analytic integration



 =========================================
 Quadrupole Moment (Buckingham convention)  ***  (a.u.)  ***
 =========================================
  
      quad-xx        quad-xy        quad-xz        quad-yy        quad-yz        quad-zz
      2.91222275     0.00077331     0.00260096    -5.81935896    -0.01133386     2.90713621

 This molecular quadrupole moment is calculated with analytic integration
1



 =======================================================
 S F O   P O P U L A T I O N S ,   M O   A N A L Y S I S
 =======================================================
  
 A Mulliken population analysis is performed on (input-)selected MOs. All populations refer to SFOs.
 BAS populations may have been printed directly after the SCF part.


                                       === A ===


 SFO contributions (%) per orbital
 (multiplication by the orbital occupation yields the SFO Gross Populations)

 Orb.:       12     13     14     15     16     17     18     19     20     21     22     23     24     25
 occup:     2.00   2.00   2.00   2.00   2.00   2.00   2.00   2.00   2.00   2.00   0.00   0.00   0.00   0.00
 CF+SFO     ----   ----   ----   ----   ----   ----   ----   ----   ----   ----   ----   ----   ----   ----
 ------
      2:    0.24   4.07   0.00   0.00   0.03  -0.00  -0.00  -0.06   0.00  -0.00  -0.00   0.00  -0.24   0.01
      3:   -0.08   0.11   0.00  -0.00  -0.18   0.00  -0.00  -0.02  -0.00   0.00   0.00  -0.00  -2.70  -0.10
      6:    0.01   0.00  14.32   0.43  -0.00  -0.00   9.15   0.19   0.00  -0.00   0.00  -0.00   0.00  -1.74
      7:    0.00   0.00   1.96   0.68   0.00   0.00   3.02   0.06   0.00  -0.00  -0.00  -0.00  -0.00  -8.11
      9:    0.00  -0.00   0.00   0.00   0.00  17.11  -0.00  -0.00   0.27  31.60   0.44  34.15   0.00  -0.00
     10:    0.00   0.00  -0.00   0.00   0.00  -0.98  -0.00  -0.00   0.00   0.11  -0.05  -3.81   0.00   0.00
     12:   10.65   2.60   0.01   0.31  17.51   0.00   0.14   5.75  -0.00  -0.00  -0.00  -0.00   0.73   0.14
     13:    0.23   0.28   0.00   0.01   1.24  -0.00   0.04   1.43  -0.00  -0.00   0.00  -0.00  -0.51  -1.67
     17:    0.00   0.00  -0.00  -0.00  -0.00   0.00   0.00   0.00   0.60   0.00   1.12   0.02  -0.00  -0.00
     21:    0.24   4.04   0.00   0.03   0.01   0.00  -0.05  -0.01  -0.00   0.00  -0.00  -0.00  -0.24   0.01
     22:   -0.08   0.11   0.00  -0.16  -0.03   0.00  -0.02  -0.00  -0.00  -0.00   0.00   0.00  -2.69  -0.21
     25:    7.80   1.94   3.84  10.12   2.98   0.00   6.56   0.30  -0.00   0.00   0.00   0.00   0.53  -0.74
     26:    0.17   0.21   0.51   0.24   0.86  -0.00   1.99  -0.09  -0.00  -0.00   0.00  -0.00  -0.37  -8.94
     28:    0.00   0.00   0.00  -0.00   0.00  17.17   0.00   0.00  26.20   5.60  22.31  12.23   0.00   0.00
     29:    0.00   0.00   0.00   0.00  -0.00  -0.98   0.00   0.00   0.09   0.02  -2.49  -1.37   0.00   0.00
     31:    2.87   0.72  10.58   5.09  -0.07  -0.00  -0.12   8.37   0.00   0.00  -0.00  -0.00   0.19  -0.35
     32:    0.07   0.08   1.47   0.94  -0.12  -0.00  -0.28   2.91  -0.00   0.00  -0.00  -0.00  -0.13  -1.07
     40:    0.24   4.01  -0.00   0.01   0.02   0.00  -0.04  -0.02   0.00   0.00  -0.00   0.00  -0.24   0.04
     41:   -0.08   0.11   0.00  -0.11  -0.07   0.00  -0.01  -0.01   0.00   0.00  -0.00   0.00  -2.69  -0.60
     44:    8.23   2.01   3.39   7.26   6.44  -0.00   6.69  -0.16  -0.00   0.00   0.00   0.00   0.55   0.44
     45:    0.18   0.22   0.48  -0.09   1.22   0.00   2.18  -0.35  -0.00   0.00  -0.00  -0.00  -0.39  -9.40
     47:   -0.00  -0.00  -0.00   0.00   0.00  17.28  -0.00   0.00  21.18  10.53  28.97   5.47   0.00   0.00
     48:   -0.00   0.00   0.00   0.00   0.00  -0.98  -0.00   0.00   0.08   0.04  -3.24  -0.61  -0.00  -0.00
     50:    2.50   0.60  11.16   4.04   0.40  -0.00   0.26   8.14  -0.00   0.00   0.00   0.00   0.17   0.27
     51:    0.05   0.06   1.54   1.12  -0.32   0.00  -0.14   2.82  -0.00   0.00  -0.00   0.00  -0.12  -1.66
     59:    0.24   4.01   0.00   0.00   0.02   0.00  -0.00  -0.06  -0.00  -0.00  -0.00   0.00  -0.25   0.01
     60:   -0.08   0.11  -0.00  -0.00  -0.18  -0.00  -0.00  -0.02   0.00  -0.00  -0.00   0.00  -2.68  -0.10
     63:    0.01   0.00  14.57   0.44  -0.00   0.00   8.83   0.18  -0.00  -0.00   0.00  -0.00   0.00  -1.74
     64:    0.00   0.00   2.03   0.65   0.00  -0.00   2.96   0.06  -0.00   0.00   0.00  -0.00  -0.00  -8.14
     66:    0.00   0.00   0.00  -0.00  -0.00  17.33   0.00   0.00   0.27  31.39   0.44  33.97   0.00   0.00
     67:    0.00   0.00   0.00  -0.00   0.00  -0.98   0.00   0.00   0.00   0.12  -0.05  -3.80   0.00   0.00
     69:   10.75   2.56   0.01   0.31  17.48  -0.00   0.13   5.72  -0.00  -0.00   0.00  -0.00   0.73   0.15
     70:    0.23   0.28   0.00   0.01   1.25  -0.00   0.04   1.42  -0.00  -0.00   0.00  -0.00  -0.51  -1.67
     74:    0.00   0.00   0.00  -0.00  -0.00   0.00   0.00   0.00   0.61   0.00   1.13   0.02   0.00   0.00
     78:    0.24   4.01  -0.00   0.02   0.01  -0.00  -0.05  -0.01   0.00   0.00   0.00  -0.00  -0.24   0.01
     79:   -0.08   0.11   0.00  -0.16  -0.03  -0.00  -0.02  -0.00  -0.00   0.00   0.00  -0.00  -2.68  -0.21
     82:    7.83   1.94   3.92  10.12   2.92   0.00   6.38   0.26  -0.00  -0.00   0.00  -0.00   0.53  -0.74
     83:    0.17   0.22   0.56   0.24   0.86  -0.00   1.97  -0.09  -0.00  -0.00  -0.00   0.00  -0.37  -9.00
     85:   -0.00  -0.00  -0.00   0.00  -0.00  17.27  -0.00   0.00  26.21   5.51  22.32  12.14   0.00   0.00
     86:    0.00  -0.00  -0.00   0.00   0.00  -0.98  -0.00  -0.00   0.10   0.02  -2.50  -1.36   0.00   0.00
     88:    2.89   0.70  10.61   5.15  -0.07   0.00  -0.11   8.41   0.00  -0.00  -0.00   0.00   0.20  -0.36
     89:    0.06   0.07   1.46   0.92  -0.10   0.00  -0.27   2.90   0.00  -0.00  -0.00   0.00  -0.14  -1.10
     97:    0.24   4.05   0.00   0.02   0.02  -0.00  -0.04  -0.02   0.00   0.00   0.00   0.00  -0.24   0.04
     98:   -0.08   0.11   0.00  -0.11  -0.07  -0.00  -0.01  -0.01   0.00   0.00  -0.00   0.00  -2.70  -0.61
    101:    8.19   2.03   3.30   7.24   6.51   0.00   6.89  -0.16  -0.00   0.00  -0.00  -0.00   0.56   0.45
    102:    0.18   0.22   0.44  -0.09   1.21  -0.00   2.20  -0.35   0.00   0.00  -0.00  -0.00  -0.39  -9.35
    104:    0.00   0.00   0.00  -0.00   0.00  17.16   0.00   0.00  21.16  10.66  29.02   5.53   0.00   0.00
    105:    0.00   0.00   0.00  -0.00   0.00  -0.98   0.00   0.00   0.08   0.04  -3.24  -0.62  -0.00  -0.00
    107:    2.48   0.61  11.10   3.99   0.41  -0.00   0.30   8.10  -0.00   0.00   0.00   0.00   0.17   0.27
    108:    0.06   0.07   1.54   1.14  -0.33  -0.00  -0.14   2.83   0.00  -0.00  -0.00   0.00  -0.12  -1.72
    115:    5.53   9.24   0.00  11.02   1.87  -0.00  11.36   1.98   0.00   0.00   0.00   0.00   7.80   7.57
    116:   -0.02   0.16  -0.00   0.13   0.02  -0.00  -0.17  -0.03   0.00   0.00   0.00   0.00  11.27  11.26
    121:    5.56   9.12   0.00   8.19   4.79   0.00   8.45   4.90   0.00   0.00   0.00   0.00   7.81  21.75
    122:   -0.02   0.16  -0.00   0.10   0.06  -0.00  -0.13  -0.07   0.00  -0.00  -0.00  -0.00  11.28  32.31
    125:    0.00   0.00  -0.00  -0.00   0.00   0.26  -0.00  -0.00   0.56   0.28   1.15   0.22  -0.00   0.00
    127:    5.56   9.01   0.00   0.24  12.82   0.00   0.21  13.17   0.00   0.00  -0.00   0.00   7.82   3.65
    128:   -0.02   0.16  -0.00   0.00   0.16  -0.00  -0.00  -0.19   0.00   0.00  -0.00   0.00  11.27   5.42
    131:   -0.00  -0.00  -0.00   0.00   0.00   0.26   0.00   0.00   0.01   0.82   0.02   1.35   0.00  -0.00
    133:    5.56   9.16   0.00  11.14   1.81  -0.00  11.31   2.04   0.00   0.00   0.00  -0.00   7.80   7.56
    134:   -0.02   0.16  -0.00   0.13   0.02   0.00  -0.17  -0.03   0.00   0.00   0.00  -0.00  11.27  11.23
    139:    5.52   9.22   0.00   8.07   4.86  -0.00   8.52   4.83   0.00  -0.00   0.00   0.00   7.81  21.76
    140:   -0.02   0.16  -0.00   0.10   0.06  -0.00  -0.12  -0.07  -0.00  -0.00   0.00   0.00  11.29  32.34
    143:   -0.00  -0.00   0.00  -0.00   0.00   0.25  -0.00  -0.00   0.55   0.28   1.16   0.22   0.00  -0.00
    145:    5.49   9.18   0.00   0.24  12.73   0.00   0.21  13.14   0.00  -0.00  -0.00   0.00   7.80   3.65
    146:   -0.02   0.16  -0.00   0.00   0.16  -0.00  -0.00  -0.19  -0.00   0.00  -0.00  -0.00  11.28   5.42
    149:    0.00  -0.00  -0.00  -0.00  -0.00   0.25   0.00  -0.00   0.01   0.83   0.02   1.36   0.00   0.00


 Summation over all MOs, multiplied by occupation: Total SFO Gross Populations in this Irrep
 ===========================================================================================

     2.00    1.07   -0.01   -0.00   -0.00    0.84    0.07   -0.01    0.98   -0.02   -0.00    0.81
     0.03   -0.01    0.02    0.01    0.01    0.02    0.00    2.00    1.07   -0.01   -0.00   -0.00
     0.82    0.04   -0.01    0.98   -0.02   -0.00    0.83    0.06   -0.01    0.02    0.01    0.01
     0.02    0.01    2.00    1.07   -0.01   -0.00   -0.00    0.82    0.04   -0.01    0.98   -0.02
    -0.00    0.84    0.06   -0.01    0.02    0.01    0.01    0.02    0.01    2.00    1.07   -0.01
    -0.00   -0.00    0.84    0.07   -0.01    0.98   -0.02   -0.00    0.81    0.03   -0.01    0.02
     0.01    0.01    0.02    0.00    2.00    1.07   -0.01   -0.00   -0.00    0.82    0.04   -0.01
     0.98   -0.02   -0.00    0.83    0.06   -0.01    0.02    0.01    0.01    0.02    0.01    2.00
     1.07   -0.01   -0.00   -0.00    0.82    0.04   -0.01    0.98   -0.02   -0.00    0.83    0.06
    -0.01    0.02    0.01    0.01    0.02    0.01    1.11   -0.00   -0.00    0.03    0.02    0.02
     1.11   -0.00   -0.00    0.03    0.02    0.02    1.11   -0.00   -0.00    0.02    0.02    0.03
     1.11   -0.00   -0.00    0.03    0.02    0.02    1.11   -0.00   -0.00    0.03    0.02    0.02
     1.11   -0.00   -0.00    0.02    0.02    0.03



 List of all MOs, ordered by energy, with the most significant SFO gross populations
 ===================================================================================

 Each percentage contribution in the table below corresponds to the indicated SFO.
 In general, a SFO may be a linear combination of several Fragment Orbitals on the same,
 or on symmetry-related Fragments. Only the first 'member' of such a combination is
 specified here. A full definition of all SFOs is given in an earlier part of the output.
 The numbering of the SFOs in this table does NOT include the Core Orbitals, and starts
 from one for each symmetry representation, as in the SFO definition list earlier.

       E(eV)  Occ       MO           %     SFO (first member)   E(eV)  Occ   Fragment
 -------------------------------------------------------------------------------------

     -21.394  2.00     7 A         14.70%     2 S             -13.876  2.00     4 C
                                   14.65%     2 S             -13.876  2.00     3 C
                                   14.64%     2 S             -13.876  2.00     5 C
                                   14.55%     2 S             -13.876  2.00     2 C
                                   14.53%     2 S             -13.876  2.00     6 C
                                   14.49%     2 S             -13.876  2.00     1 C
                                    2.38%     1 P:z            -5.403  0.67     4 C
                                    2.37%     1 P:z            -5.403  0.67     1 C
                                    1.83%     1 P:x            -5.403  0.67     3 C
                                    1.81%     1 P:x            -5.403  0.67     6 C
                                    1.75%     1 P:x            -5.403  0.67     5 C
                                    1.73%     1 P:x            -5.403  0.67     2 C
                                    1.25%     1 S              -6.626  1.00     9 H
                                    1.24%     1 S              -6.626  1.00     8 H
                                    1.24%     1 S              -6.626  1.00    10 H
                                    1.23%     1 S              -6.626  1.00     7 H
                                    1.23%     1 S              -6.626  1.00    11 H
                                    1.22%     1 S              -6.626  1.00    12 H
     -18.622  2.00     8 A         20.76%     2 S             -13.876  2.00     5 C
                                   20.76%     2 S             -13.876  2.00     2 C
                                   12.93%     2 S             -13.876  2.00     3 C
                                   12.88%     2 S             -13.876  2.00     6 C
                                    5.55%     1 P:x            -5.403  0.67     4 C
                                    5.47%     1 P:x            -5.403  0.67     1 C
                                    5.12%     1 S              -6.626  1.00    10 H
                                    5.11%     1 S              -6.626  1.00     7 H
                                    3.19%     1 S              -6.626  1.00     8 H
                                    3.16%     1 S              -6.626  1.00    11 H
                                    2.37%     1 P:z            -5.403  0.67     3 C
                                    2.36%     1 P:z            -5.403  0.67     6 C
                                   -1.63%     2 P:x             4.709  0.00     1 C
                                   -1.62%     2 P:x             4.709  0.00     4 C
     -18.619  2.00     9 A         22.21%     2 S             -13.876  2.00     1 C
                                   22.05%     2 S             -13.876  2.00     4 C
                                   10.23%     2 S             -13.876  2.00     6 C
                                   10.08%     2 S             -13.876  2.00     3 C
                                    5.46%     1 S              -6.626  1.00    12 H
                                    5.44%     1 S              -6.626  1.00     9 H
                                    3.50%     1 P:z            -5.403  0.67     5 C
                                    3.47%     1 P:z            -5.403  0.67     2 C
                                    2.52%     1 S              -6.626  1.00    11 H
                                    2.48%     1 S              -6.626  1.00     8 H
                                    2.34%     2 S             -13.876  2.00     2 C
                                    2.27%     2 S             -13.876  2.00     5 C
                                    2.01%     1 P:z            -5.403  0.67     3 C
                                    1.99%     1 P:z            -5.403  0.67     6 C
                                    1.66%     1 P:x            -5.403  0.67     5 C
                                    1.65%     1 P:x            -5.403  0.67     2 C
[...]
 CRIT  9.658035629132775E-002
 iter.  8 V(1) measure  0.8938807530231E+05
        8        delta  0.4482475064142E+00
 CRIT  8.790906235489968E-002
 iter.  9 V(1) measure  0.8938772409437E+05
        9        delta  0.3512079394422E+00
 CRIT  2.593781359616425E-002
 iter. 10 V(1) measure  0.8938766665989E+05
       10        delta  0.5743448383873E-01
 *** convergence reached

    RRIJmat_z_z         
    using first order VWN potential
 
    NOTE: We will NOT use the GGA kernel (input option ALDA was set)
 
 CRIT   1.00000000000000     
 iter.  1 V(1) measure  0.1302561882585E+04
 *** convergence criterion : .1302562E-02
 CRIT   160.190928179600     
 iter.  2 V(1) measure  0.1073572286923E+04
        2        delta  0.2289895956618E+03
 CRIT   60.9271159250282     
 iter.  3 V(1) measure  0.1109007048648E+04
        3        delta  0.3543476172471E+02
 CRIT   14.2446947816824     
 iter.  4 V(1) measure  0.1113664537105E+04
        4        delta  0.4657488457677E+01
 CRIT   5.18331718055948     
 iter.  5 V(1) measure  0.1115240420419E+04
        5        delta  0.1575883313306E+01
 CRIT   2.28402654390277     
 iter.  6 V(1) measure  0.1115669936557E+04
        6        delta  0.4295161382324E+00
 CRIT  0.989325529904939     
 iter.  7 V(1) measure  0.1115777334453E+04
        7        delta  0.1073978965476E+00
 CRIT  0.477231109222958     
 iter.  8 V(1) measure  0.1115784152222E+04
        8        delta  0.6817768079600E-02
 CRIT  0.127253982972872     
 iter.  9 V(1) measure  0.1115777534427E+04
        9        delta  0.6617794423846E-02
 CRIT  5.704729443807695E-002
 iter. 10 V(1) measure  0.1115775562802E+04
       10        delta  0.1971625137685E-02
 CRIT  1.976720808287152E-002
 iter. 11 V(1) measure  0.1115775188153E+04
       11        delta  0.3746485058400E-03
 *** convergence reached
 ------------------------------------------
 Convergence acceleration: T
 QUADRUPOLE-QUADRUPOLE POLARIZABILITY     
 Frequency  =  0.1322975682     Hartrees
 Wavelength =   344.4005294     nm
 Wavenumber =   29035.96001     cm^{-1}
 Energy     =   3.600000000     eV
 ------------------------------------------
 QUADRUPOLE-QUADRUPOLE Polarizability tensor:
 
 xx xx     4188.87109399073     
 xx xy    0.385258716125242     
 xx xz   -0.195018796554367     
 xx yy    -4991.67103474205     
 xx yz     3.65344462474201     
 xx zz     802.799940751320     
 xy xx    0.387182868464352     
 xy xy     12591.5552597369     
 xy xz    -3.39857636000101     
 xy yy    3.346287608157013E-002
 xy yz   -0.672082345249087     
 xy zz   -0.420645744546683     
 xz xx   -0.195357766418241     
 xz xy    -3.40073704364180     
 xz xz     1693.66658011287     
 xz yy    0.147368347438714     
 xz yz    0.318676312199838     
 xz zz    4.798941899195533E-002
 yy xx    -4991.76430184033     
 yy xy    2.541268720245834E-002
 yy xz    0.139864387651061     
 yy yy     9983.81749492209     
 yy yz   -0.711904532938903     
 yy zz    -4992.05319308175     
 yz xx     3.65557000093106     
 yz xy   -0.702645782435803     
 yz xz    0.317531303327561     
 yz yy   -0.819833206316815     
 yz yz     12590.9206117732     
 yz zz    -2.83573679464616     
 zz xx     802.810218078657     
 zz xy   -0.418695685107705     
 zz xz    5.417110878040653E-002
 zz yy    -4991.98952907829     
 zz yz    -2.83293705418646     
 zz zz     4189.17931099963     
 
 Imaginary QUADRUPOLE-QUADRUPOLE Polarizability tensor:
 
 xx xx     18.7075876348398     
 xx xy    4.986293825066800E-003
 xx xz   -1.856153043165925E-003
 xx yy    -21.5575116856142     
 xx yz    8.380289501835153E-002
 xx zz     2.84992405077435     
 xy xx    4.806595895096174E-003
 xy xy     124.988176250307     
 xy xz   -6.410547099648112E-002
 xy yy    3.264400416364089E-003
 xy yz    2.957800068137457E-004
 xy zz   -8.070996311356181E-003
 xz xx   -1.706318353186809E-003
 xz xy   -6.409798766465293E-002
 xz xz     7.93253120932478     
 xz yy    1.208714114645545E-003
 xz yz    5.127713567140701E-003
 xz zz    4.976042385142607E-004
 yy xx    -21.6317757161321     
 yy xy    3.727387004878762E-002
 yy xz    1.111497662207871E-003
 yy yy     43.2659758043929     
 yy yz   -0.510955220553684     
 yy zz    -21.6342000882606     
 yz xx    8.376981015174109E-002
 yz xy    1.133880459406111E-003
 yz xz    5.779664317081016E-003
 yz yy   -4.347672531636326E-002
 yz yz     124.956312245459     
 yz zz   -4.029308483557041E-002
 zz xx     2.84967521154326     
 zz xy   -8.303876165975761E-003
 zz xz    5.853597843209334E-004
 zz yy    -21.5607726207519     
 zz yz   -4.035808061965606E-002
 zz zz     18.7110974092088     



 =======================================================================
 Electrostatic potential at the Nuclei due to electrons and other nuclei
 =======================================================================
  
         Atom                  Potential
         ----                  ---------
     1)   C                  14.76879620
     2)   C                  14.76875281
     3)   C                  14.76880542
     4)   C                  14.76899754
     5)   C                  14.76883450
     6)   C                  14.76868565
     7)   H                   1.10106890
     8)   H                   1.10121910
     9)   H                   1.10162361
    10)   H                   1.10111877
    11)   H                   1.10113533
    12)   H                   1.10152990
 
 
 ========================
 No memory problems found
 ========================
 
 Maximum number of active allocate calls:        1279
 
 *******************************************************************************

                             A D F   E X I T
 NORMAL TERMINATION



 =================
 Timing Statistics
 =================
  
 Total Used :                     CPU=       40.80      System=        0.62     Elapsed=       42.22

 Calls  Section                     ( Mean, Percentage )
 ---------------------------------------------------------------------------------------------------
     3  ><      ................      0.00    0.01             0.00    0.00             0.00    0.01
     1  INIT    ................      0.54    1.31             0.01    1.34             0.55    1.30
     1  GEOMET  ................      0.04    0.09             0.01    1.29             0.05    0.11
     1  FRAGM   ................      0.01    0.03             0.02    3.22             0.03    0.08
     1  INPUTA  ................      0.00    0.01             0.00    0.00             0.00    0.01
     1  ATDEN   ................      0.00    0.00             0.00    0.58             0.00    0.01
     1  MAINSY  ................      0.03    0.07             0.01    1.31             0.04    0.09
     1  SYMFIT  ................      0.01    0.02             0.00    0.02             0.01    0.02
     1  CORORT  ................      0.00    0.00             0.00    0.03             0.00    0.00
     1  SYMORB  ................      0.00    0.01             0.00    0.00             0.00    0.01
     1  CLSMAT  ................      0.01    0.03             0.00    0.00             0.01    0.03
     1  ORTHON  ................      0.02    0.04             0.00    0.00             0.02    0.04
     1  GENPT   ................      0.13    0.31             0.00    0.71             0.13    0.31
     1  PTBAS   ................      0.09    0.22             0.00    0.00             0.09    0.21
    12  FOCKY   ................      0.29    8.56             0.00    6.68             0.30    8.40
    12  FOCKTR  ................      0.00    0.10             0.00    0.60             0.00    0.10
    12  SDIIS   ................      0.00    0.14             0.00    0.38             0.00    0.14
     1  COREPS  ................      0.21    0.52             0.00    0.64             0.22    0.52
     1  TOTEN   ................      1.01    2.49             0.03    4.52             1.04    2.47
     1  POPAN   ................      0.01    0.02             0.00    0.00             0.01    0.02
     1  DEBYE   ................      0.01    0.03             0.00    0.53             0.02    0.04
     1  INPUTE  ................      0.00    0.00             0.00    0.11             0.00    0.00
     1  SYMORE  ................      0.00    0.00             0.00    0.00             0.00    0.00
     1  METS    ................      0.00    0.00             0.00    0.09             0.00    0.00
     1  CETS    ................      0.01    0.02             0.00    0.56             0.01    0.03
     1  ELNRGY  ................      0.02    0.04             0.00    0.00             0.02    0.04
     1  POPUL   ................      0.01    0.02             0.01    1.20             0.02    0.04
     1  AORESPONSE .............     35.03   85.86             0.46   74.38            36.27   85.91
     1  EXIT PROCEDURE .........      0.02    0.04             0.01    1.80             0.03    0.07


 Currently Open Files (EXIT00)
 ====================

 Unit    Access Format  Status   Type       Ident (file)
 -------------------------------------------------------
   3      SEQ    FORM   TRANSP  NORMAL      LOGFILE
                                          ( logfile )

 ***************************************************************************************************
 (LOGFILE)
 <Sep29-2020> <15:20:38>  ADF 2019  RunTime: Sep29-2020 15:20:38  Nodes: 1  Procs: 1
 <Sep29-2020> <15:20:38>  Hydrogen (TZP)
 <Sep29-2020> <15:20:38>  RunType   : CREATE
 <Sep29-2020> <15:20:39>  Net Charge: 0 (Nuclei minus Electrons)
 <Sep29-2020> <15:20:39>  Symmetry  : ATOM
  Coordinates
    Atom         X           Y           Z   (Angstrom)
    1.H         0.000000    0.000000    0.000000
 <Sep29-2020> <15:20:39>  >>>> CORORT
 <Sep29-2020> <15:20:39>  >>>> CLSMAT
 <Sep29-2020> <15:20:39>  >>>> ORTHON
 <Sep29-2020> <15:20:39>  >>>> GENPT
 <Sep29-2020> <15:20:39>  Block Length=  64
 <Sep29-2020> <15:20:39>  >>>> PTBAS
 <Sep29-2020> <15:20:39>  >>>> CYCLE
 <Sep29-2020> <15:20:39>              |Error|         MaxErr       Wt(A-DIIS)
 <Sep29-2020> <15:20:39>      1      0.00000000      0.00000000
 <Sep29-2020> <15:20:39>      2      0.03052909      0.02968459
 <Sep29-2020> <15:20:39>      3      0.00718138      0.00670742    100.0
 <Sep29-2020> <15:20:39>      4      0.00117303      0.00114116      0.1
 <Sep29-2020> <15:20:39>      5      0.00002783      0.00002380      0.0
 <Sep29-2020> <15:20:39>      6      0.00000153      0.00000130      0.0
 <Sep29-2020> <15:20:39>      7      0.00000000      0.00000000      0.0
 <Sep29-2020> <15:20:39>  SCF converged
 <Sep29-2020> <15:20:39>      8      0.00000000      0.00000000      0.0
 <Sep29-2020> <15:20:39>  >>>> POPAN
 <Sep29-2020> <15:20:39>  >>>> DEBYE
 <Sep29-2020> <15:20:39>  NORMAL TERMINATION
 <Sep29-2020> <15:20:39>  END
 <Sep29-2020> <15:20:39>  ADF 2019  RunTime: Sep29-2020 15:20:39  Nodes: 1  Procs: 1
 <Sep29-2020> <15:20:39>  Carbon (TZP)
 <Sep29-2020> <15:20:39>  RunType   : CREATE
 <Sep29-2020> <15:20:39>  Net Charge: 0 (Nuclei minus Electrons)
 <Sep29-2020> <15:20:39>  Symmetry  : ATOM
  Coordinates
    Atom         X           Y           Z   (Angstrom)
    1.C         0.000000    0.000000    0.000000
 <Sep29-2020> <15:20:39>  >>>> CORORT
 <Sep29-2020> <15:20:39>  >>>> CLSMAT
 <Sep29-2020> <15:20:39>  >>>> ORTHON
 <Sep29-2020> <15:20:39>  >>>> GENPT
 <Sep29-2020> <15:20:39>  Block Length=  72
 <Sep29-2020> <15:20:39>  >>>> PTBAS
 <Sep29-2020> <15:20:39>  >>>> CYCLE
 <Sep29-2020> <15:20:39>              |Error|         MaxErr       Wt(A-DIIS)
 <Sep29-2020> <15:20:39>      1      0.00000000      0.00000000
 <Sep29-2020> <15:20:40>      2      4.48324754      3.31969244    100.0
 <Sep29-2020> <15:20:40>      3      1.61537707      1.30410194    100.0
 <Sep29-2020> <15:20:40>      4      0.72706284      0.59053131    100.0
 <Sep29-2020> <15:20:40>      5      0.40898688      0.33263800    100.0
 <Sep29-2020> <15:20:40>      6      0.13548919      0.10594416    100.0
 <Sep29-2020> <15:20:40>      7      0.11406432      0.09088019     90.8
 <Sep29-2020> <15:20:40>      8      0.01170325      0.00926551      8.3
 <Sep29-2020> <15:20:40>      9      0.00078015      0.00061791      0.0
 <Sep29-2020> <15:20:40>     10      0.00000178      0.00000107      0.0
 <Sep29-2020> <15:20:40>     11      0.00000024      0.00000019      0.0
 <Sep29-2020> <15:20:40>     12      0.00000000      0.00000000      0.0
 <Sep29-2020> <15:20:40>  SCF converged
 <Sep29-2020> <15:20:40>     13      0.00000000      0.00000000      0.0
 <Sep29-2020> <15:20:40>  >>>> POPAN
 <Sep29-2020> <15:20:40>  >>>> DEBYE
 <Sep29-2020> <15:20:40>  NORMAL TERMINATION
 <Sep29-2020> <15:20:40>  END
 <Sep29-2020> <15:20:40>  ADF 2019  RunTime: Sep29-2020 15:20:40  Nodes: 1  Procs: 6
 <Sep29-2020> <15:20:41>  None
 <Sep29-2020> <15:20:41>  RunType   : SINGLE POINT
 <Sep29-2020> <15:20:41>  Net Charge: 0 (Nuclei minus Electrons)
 <Sep29-2020> <15:20:41>  Symmetry  : NOSYM
 <Sep29-2020> <15:20:41>  >>>> FRAGM
  Coordinates
    Atom         X           Y           Z   (Angstrom)
    1.C         0.029658    4.000000   -1.399103
    2.C        -1.197556    4.000000   -0.724808
    3.C        -1.226139    4.000000    0.674139
    4.C        -0.029742    4.000000    1.398097
    5.C         1.196444    4.000000    0.725792
    6.C         1.227261    4.000000   -0.673261
    7.H        -2.128999    4.000000   -1.293823
    8.H        -2.183941    4.000000    1.197567
    9.H        -0.052788    4.000000    2.489502
   10.H         2.131195    4.000000    1.289177
   11.H         2.182359    4.000000   -1.202028
   12.H         0.053112    4.000000   -2.490698
 <Sep29-2020> <15:20:41>  >>>> CORORT
 <Sep29-2020> <15:20:41>  >>>> CLSMAT
 <Sep29-2020> <15:20:41>  >>>> ORTHON
 <Sep29-2020> <15:20:41>  >>>> GENPT
 <Sep29-2020> <15:20:41>  Block Length= 128
 <Sep29-2020> <15:20:41>  >>>> PTBAS
 <Sep29-2020> <15:20:41>  >>>> CYCLE
 <Sep29-2020> <15:20:42>              |Error|         MaxErr       Wt(A-DIIS)
 <Sep29-2020> <15:20:42>      1      5.99093847      0.98077704
 <Sep29-2020> <15:20:42>      2      0.89232772      0.18749157    100.0
 <Sep29-2020> <15:20:42>      3      0.52145296      0.10271545    100.0
 <Sep29-2020> <15:20:42>      4      0.74325305      0.17288629    100.0
 <Sep29-2020> <15:20:43>      5      0.07622681      0.01081275      9.9
 <Sep29-2020> <15:20:43>      6      0.01080392      0.00181454      0.8
 <Sep29-2020> <15:20:43>      7      0.00238467      0.00059958      0.0
 <Sep29-2020> <15:20:44>      8      0.00202785      0.00049365      0.0
 <Sep29-2020> <15:20:44>      9      0.00008438      0.00002125      0.0
 <Sep29-2020> <15:20:44>     10      0.00010348      0.00002580      0.0
 <Sep29-2020> <15:20:44>     11      0.00000131      0.00000035      0.0
 <Sep29-2020> <15:20:45>  SCF converged
 <Sep29-2020> <15:20:45>     12      0.00000031      0.00000008      0.0
 <Sep29-2020> <15:20:45>  >>>> TOTEN
 <Sep29-2020> <15:20:46>  >>>> POPAN
 <Sep29-2020> <15:20:46>  >>>> DEBYE
 <Sep29-2020> <15:20:46>  >>>> AMETS
 <Sep29-2020> <15:20:46>  >>>> POPUL
 <Sep29-2020> <15:20:47>     1 V(1)  0.1844032E+04
 <Sep29-2020> <15:20:47>     2 V(1)  0.1574254E+04
 <Sep29-2020> <15:20:47>     3 V(1)  0.1556952E+04
 <Sep29-2020> <15:20:48>     4 V(1)  0.1563505E+04
 <Sep29-2020> <15:20:48>     5 V(1)  0.1565462E+04
 <Sep29-2020> <15:20:48>     6 V(1)  0.1565340E+04
 <Sep29-2020> <15:20:49>     7 V(1)  0.1565288E+04
 <Sep29-2020> <15:20:49>     8 V(1)  0.1565282E+04
 <Sep29-2020> <15:20:50>     9 V(1)  0.1565277E+04
 <Sep29-2020> <15:20:50>    10 V(1)  0.1565276E+04
 <Sep29-2020> <15:20:50>   convergence reached
 <Sep29-2020> <15:20:50>     1 V(1)  0.2536247E+02
 <Sep29-2020> <15:20:51>     2 V(1)  0.2328917E+02
 <Sep29-2020> <15:20:51>     3 V(1)  0.2328382E+02
 <Sep29-2020> <15:20:51>     4 V(1)  0.2328307E+02
 <Sep29-2020> <15:20:52>     5 V(1)  0.2328296E+02
 <Sep29-2020> <15:20:52>     6 V(1)  0.2328298E+02
 <Sep29-2020> <15:20:52>   convergence reached
 <Sep29-2020> <15:20:53>     1 V(1)  0.1841835E+04
 <Sep29-2020> <15:20:53>     2 V(1)  0.1572271E+04
 <Sep29-2020> <15:20:54>     3 V(1)  0.1555018E+04
 <Sep29-2020> <15:20:54>     4 V(1)  0.1561559E+04
 <Sep29-2020> <15:20:54>     5 V(1)  0.1563515E+04
 <Sep29-2020> <15:20:55>     6 V(1)  0.1563405E+04
 <Sep29-2020> <15:20:55>     7 V(1)  0.1563343E+04
 <Sep29-2020> <15:20:55>     8 V(1)  0.1563336E+04
 <Sep29-2020> <15:20:56>     9 V(1)  0.1563332E+04
 <Sep29-2020> <15:20:56>    10 V(1)  0.1563330E+04
 <Sep29-2020> <15:20:56>   convergence reached
 <Sep29-2020> <15:20:57>     1 V(1)  0.1302885E+04
 <Sep29-2020> <15:20:57>     2 V(1)  0.1073744E+04
 <Sep29-2020> <15:20:58>     3 V(1)  0.1109269E+04
 <Sep29-2020> <15:20:58>     4 V(1)  0.1114262E+04
 <Sep29-2020> <15:20:58>     5 V(1)  0.1115447E+04
 <Sep29-2020> <15:20:59>     6 V(1)  0.1115858E+04
 <Sep29-2020> <15:20:59>     7 V(1)  0.1115961E+04
 <Sep29-2020> <15:21:00>     8 V(1)  0.1115963E+04
 <Sep29-2020> <15:21:00>     9 V(1)  0.1115957E+04
 <Sep29-2020> <15:21:01>    10 V(1)  0.1115955E+04
 <Sep29-2020> <15:21:01>    11 V(1)  0.1115955E+04
 <Sep29-2020> <15:21:01>   convergence reached
 <Sep29-2020> <15:21:02>     1 V(1)  0.1057869E+06
 <Sep29-2020> <15:21:02>     2 V(1)  0.8966114E+05
 <Sep29-2020> <15:21:03>     3 V(1)  0.8876567E+05
 <Sep29-2020> <15:21:03>     4 V(1)  0.8939191E+05
 <Sep29-2020> <15:21:03>     5 V(1)  0.8951080E+05
 <Sep29-2020> <15:21:04>     6 V(1)  0.8950261E+05
 <Sep29-2020> <15:21:04>     7 V(1)  0.8949963E+05
 <Sep29-2020> <15:21:05>     8 V(1)  0.8949922E+05
 <Sep29-2020> <15:21:05>     9 V(1)  0.8949888E+05
 <Sep29-2020> <15:21:06>    10 V(1)  0.8949883E+05
 <Sep29-2020> <15:21:06>   convergence reached
 <Sep29-2020> <15:21:06>     1 V(1)  0.6151074E+03
 <Sep29-2020> <15:21:06>     2 V(1)  0.4702769E+03
 <Sep29-2020> <15:21:07>     3 V(1)  0.4839937E+03
 <Sep29-2020> <15:21:07>     4 V(1)  0.4848082E+03
 <Sep29-2020> <15:21:08>     5 V(1)  0.4858186E+03
 <Sep29-2020> <15:21:08>     6 V(1)  0.4860084E+03
 <Sep29-2020> <15:21:08>     7 V(1)  0.4860338E+03
 <Sep29-2020> <15:21:09>     8 V(1)  0.4860350E+03
 <Sep29-2020> <15:21:09>     9 V(1)  0.4860338E+03
 <Sep29-2020> <15:21:10>    10 V(1)  0.4860331E+03
 <Sep29-2020> <15:21:10>    11 V(1)  0.4860329E+03
 <Sep29-2020> <15:21:10>   convergence reached
 <Sep29-2020> <15:21:10>     1 V(1)  0.2748751E+04
 <Sep29-2020> <15:21:11>     2 V(1)  0.2507404E+04
 <Sep29-2020> <15:21:11>     3 V(1)  0.2520119E+04
 <Sep29-2020> <15:21:12>     4 V(1)  0.2520400E+04
 <Sep29-2020> <15:21:12>     5 V(1)  0.2520572E+04
 <Sep29-2020> <15:21:13>     6 V(1)  0.2520571E+04
 <Sep29-2020> <15:21:13>   convergence reached
 <Sep29-2020> <15:21:13>     1 V(1)  0.1056612E+06
 <Sep29-2020> <15:21:14>     2 V(1)  0.8954824E+05
 <Sep29-2020> <15:21:14>     3 V(1)  0.8865546E+05
 <Sep29-2020> <15:21:14>     4 V(1)  0.8928080E+05
 <Sep29-2020> <15:21:15>     5 V(1)  0.8939958E+05
 <Sep29-2020> <15:21:16>     6 V(1)  0.8939206E+05
 <Sep29-2020> <15:21:16>     7 V(1)  0.8938852E+05
 <Sep29-2020> <15:21:16>     8 V(1)  0.8938808E+05
 <Sep29-2020> <15:21:17>     9 V(1)  0.8938772E+05
 <Sep29-2020> <15:21:17>    10 V(1)  0.8938767E+05
 <Sep29-2020> <15:21:17>   convergence reached
 <Sep29-2020> <15:21:18>     1 V(1)  0.1302562E+04
 <Sep29-2020> <15:21:18>     2 V(1)  0.1073572E+04
 <Sep29-2020> <15:21:19>     3 V(1)  0.1109007E+04
 <Sep29-2020> <15:21:19>     4 V(1)  0.1113665E+04
 <Sep29-2020> <15:21:20>     5 V(1)  0.1115240E+04
 <Sep29-2020> <15:21:20>     6 V(1)  0.1115670E+04
 <Sep29-2020> <15:21:21>     7 V(1)  0.1115777E+04
 <Sep29-2020> <15:21:21>     8 V(1)  0.1115784E+04
 <Sep29-2020> <15:21:21>     9 V(1)  0.1115778E+04
 <Sep29-2020> <15:21:22>    10 V(1)  0.1115776E+04
 <Sep29-2020> <15:21:22>    11 V(1)  0.1115775E+04
 <Sep29-2020> <15:21:22>   convergence reached
 <Sep29-2020> <15:21:22>  NORMAL TERMINATION
 <Sep29-2020> <15:21:22>  END
