

 Parallel Execution: Process Information
 ==============================================================================
 Rank   Node Name                              NodeID   MyNodeRank  NodeMaster
    0   magnesium.science.psu.edu                 0          0          0
    1   magnesium.science.psu.edu                 0          1         -1
    2   magnesium.science.psu.edu                 0          2         -1
    3   magnesium.science.psu.edu                 0          3         -1
    4   magnesium.science.psu.edu                 0          4         -1
    5   magnesium.science.psu.edu                 0          5         -1
 ==============================================================================


May use up to 7495MB of RAM as shared memory on node 0
 
TITLE None

ATOMS
1  C     0.02888541    4.00000000   -1.39858942
2  C    -1.19821131    4.00000000   -0.72650073
3  C    -1.22547282    4.00000000    0.67254687
4  C    -0.02888541    4.00000000    1.39858942
5  C     1.19821131    4.00000000    0.72650073
6  C     1.22547282    4.00000000   -0.67254687
7  H    -2.13182440    4.00000000   -1.29185440
8  H    -2.18137560    4.00000000    1.19956197
9  H    -0.05421131    4.00000000    2.49004710
10 H     2.13182440    4.00000000    1.29185440
11 H     2.18147560    4.00000000   -1.19956197
12 H     0.05410602    4.00000000   -2.49004710
END

XC
 gga BP86
end

symmetry nosym

aoresponse
 alda
 frequency 1 3.6 eV
 lifetime 0.0037
 El_Dipole_El_Dipole
 El_Dipole_El_Quadrupole
 El_Quadrupole_El_Quadrupole
 Traceless
end

Fragments
H t21.H
C t21.C
End

 *******************************************************************************
 *                                                                             *
 *  -------------------------------------                                      *
 *   Amsterdam Density Functional  (ADF)         2019                          *
 *  -------------------------------------                                      *
 *                                               r75281 2019-06-03             *
 *                                                                             *
 *                                                                             *
 *                              =================                              *
 *                              |               |                              *
 *                              |     A D F     |                              *
 *                              |               |                              *
 *                              =================                              *
 *                                                                             *
 *                                                                             *
 *   Online information and documentation:  https://www.scm.com/support/       *
 *   E-mail:  support@scm.com   info@scm.com                                   *
 *                                                                             *
 *   Scientific publications using ADF results must be properly referenced     *
 *   See the User Manuals (or the web site) for recommended citations          *
 *   The terms and conditions of the End User License Agreement apply to       *
 *   the use of ADF, https://www.scm.com/license-terms/                        *
 *                                                                             *
 **********************  x86_64_linux_intel / intelmpi  ************************
 
 Licensed to: Prof. Lasse Jensen / Penn State University / University Park / PA  / USA
 SCM User ID: u8493
  
 ADF 2019  RunTime: Sep29-2020 15:28:55  Nodes: 1  Procs: 6

 Temporary files are created in /scratch/kid_0.1873644345


Communication costs MPI_COMM_WORLD:      0.519 usec per message,   0.0067 usec per 8-byte item
Communication costs for intra-node:      0.512 usec per message,   0.0067 usec per 8-byte item

 None



 ===========================
 A T T A C H E D   F I L E S
 ===========================
  



 ===============================
 M O D E L   P A R A M E T E R S
 ===============================
  
 DENSITY FUNCTIONAL POTENTIAL (scf)
    LDA:                               VWN                                      
    Gradient Corrections:              Becke88 Perdew86                        == Not Default ==

 SPIN  (restricted / unrestr.)
    Molecule:                          Restricted                               
    Fragments:                         Restricted                               

 OTHER ASPECTS
    Relativistic Corrections:          ---                                      

    Nuclear Charge Density Model:      Point Charge Nuclei                      
    Core Treatment:                    Frozen Orbital(s)                        

    Hyperfine or Zeeman Interaction:   ---                                      


 Fragment File(s)
 ----------------
 C:
         file : t21.C
         jobid: ADF 2019  RunTime: Sep29-2020 15:28:54  Nodes: 1  Procs: 1
         title: Carbon (TZP)
 H:
         file : t21.H
         jobid: ADF 2019  RunTime: Sep29-2020 15:28:54  Nodes: 1  Procs: 1
         title: Hydrogen (TZP)



                                        ************************************
                                        *  R U N   T Y P E : SINGLE POINT  *
                                        ************************************
  



 ===============
 G E O M E T R Y  ***  Planar Molecule  ***
 ===============
  

 ATOMS
 =====                            X Y Z                    CHARGE
                                (Angstrom)             Nucl     +Core       At.Mass
                       --------------------------    ----------------       -------
    1  C               0.0289    4.0000   -1.3986      6.00      6.00       12.0000
    2  C              -1.1982    4.0000   -0.7265      6.00      6.00       12.0000
    3  C              -1.2255    4.0000    0.6725      6.00      6.00       12.0000
    4  C              -0.0289    4.0000    1.3986      6.00      6.00       12.0000
    5  C               1.1982    4.0000    0.7265      6.00      6.00       12.0000
    6  C               1.2255    4.0000   -0.6725      6.00      6.00       12.0000
    7  H              -2.1318    4.0000   -1.2919      1.00      1.00        1.0078
    8  H              -2.1814    4.0000    1.1996      1.00      1.00        1.0078
    9  H              -0.0542    4.0000    2.4900      1.00      1.00        1.0078
   10  H               2.1318    4.0000    1.2919      1.00      1.00        1.0078
   11  H               2.1815    4.0000   -1.1996      1.00      1.00        1.0078
   12  H               0.0541    4.0000   -2.4900      1.00      1.00        1.0078


 FRAGMENTS
 =========                                     Atoms in this Fragment     Cart. coord.s (Angstrom)
                                               -------------------------------------------------------
    1  C                                                 1  C            0.0289    4.0000   -1.3986
    2  C                                                 2  C           -1.1982    4.0000   -0.7265
    3  C                                                 3  C           -1.2255    4.0000    0.6725
    4  C                                                 4  C           -0.0289    4.0000    1.3986
    5  C                                                 5  C            1.1982    4.0000    0.7265
    6  C                                                 6  C            1.2255    4.0000   -0.6725
    7  H                                                 7  H           -2.1318    4.0000   -1.2919
    8  H                                                 8  H           -2.1814    4.0000    1.1996
    9  H                                                 9  H           -0.0542    4.0000    2.4900
   10  H                                                10  H            2.1318    4.0000    1.2919
   11  H                                                11  H            2.1815    4.0000   -1.1996
   12  H                                                12  H            0.0541    4.0000   -2.4900


 Interatomic Distance Matrix (Angstrom)
 --------------------------------------

   1)     0.000
   2)     1.399   0.000
   3)     2.421   1.399   0.000
   4)     2.798   2.426   1.400   0.000
   5)     2.426   2.803   2.424   1.399   0.000
   6)     1.400   2.424   2.796   2.421   1.399   0.000
   7)     2.163   1.091   2.163   3.415   3.894   3.414   0.000
   8)     3.411   2.162   1.092   2.162   3.413   3.887   2.492   0.000
   9)     3.890   3.414   2.162   1.092   2.163   3.412   4.315   2.488   0.000
  10)     3.415   3.894   3.414   2.163   1.091   2.163   4.985   4.314   2.493   0.000
  11)     2.162   3.413   3.887   3.411   2.163   1.092   4.314   4.979   4.314   2.492
          0.000
  12)     1.092   2.163   3.412   3.890   3.414   2.162   2.493   4.314   4.981   4.315
          2.488   0.000

 Min. Distance =    1.0914
 Max. Distance =    4.9854



 =====================================
 S Y M M E T R Y ,   E L E C T R O N S
 =====================================
  
 Symmetry: NOSYM

 Irreducible Representations, including subspecies
 -------------------------------------------------
 A


 Configuration of Valence Electrons
 ==================================
 ( determined in the SCF procedure )

 Total:   42

 Net Charge: 0 (Nuclei minus Electrons)

 Aufbau principle for MO occupations will be applied through SCF cycle no.     150
 Thereafter, the program will assign electrons to MOs that are spatially
 similar to the occupied MOs in a "reference" cycle ("KeepOrbitals").
 The reference cycle is always the PREVIOUS cycle: it will evolve with
 the SCF procedure.
1
 ***************************************************************************************************



                                      ****************************************
                                      *  B U I L D : (Fragments, Functions)  *
                                      ****************************************
  



 =======
 S F O s  ***  (Symmetrized Fragment Orbitals)  ***
 =======
  
 SFOs are linear combinations of (valence) Fragment Orbitals (FOs), such that the SFOs transform as the
 irreducible representations of the (molecular) symmetry group. Each SFO is therefore characterized by
 an irrep of the molecule and by a few (or only one) generating FOs.
 The SFOs constitute a symmetry-adapted basis for the Fock matrix. The MO eigenvector coefficients in
 this basis provide a direct interpretation of the MOs in terms of Frontier Orbital Theory.

 The SFOs are combined with auxiliary Core Functions (CFs) to ensure orthogonalization on the (frozen)
 Core Orbitals (COs). The Core-orthogonalized SFOs (CSFOs) constitute the true Fock basis.

 The FOs, and hence also the (C)SFOs are combinations of the elementary basis functions (BAS). The basis
 functions that participate in the description of the SFOs depend on the irrep. The indices of the
 involved functions are printed below for each irrep.
 (The complete list of primitive basis functions is printed in another section)

 Total nr. of (C)SFOs (summation over all irreps) :   150

 NOTE: a (C)SFO that is defined as a combination of more than one FO is usually NOT normalized.



                                       === A ===
 Nr. of SFOs :  150
 Cartesian basis functions that participate in this irrep (total number =   156) :
      1     2     3     4     5     6     9    12     7    10
     13     8    11    14    15    16    17    18    19    20
     21    22    23    24    25    26    29    32    27    30
     33    28    31    34    35    36    37    38    39    40
     41    42    43    44    45    46    49    52    47    50
     53    48    51    54    55    56    57    58    59    60
     61    62    63    64    65    66    69    72    67    70
     73    68    71    74    75    76    77    78    79    80
     81    82    83    84    85    86    89    92    87    90
     93    88    91    94    95    96    97    98    99   100
    101   102   103   104   105   106   109   112   107   110
    113   108   111   114   115   116   117   118   119   120
    121   122   123   124   125   126   127   128   129   130
    131   132   133   134   135   136   137   138   139   140
    141   142   143   144   145   146   147   148   149   150
    151   152   153   154   155   156

    SFO  (index         Fragment          Generating    Expansion in Fragment Orbitals
  indx  incl.CFs)   Occup   Orb.Energy   FragmentType  Coeff.   Orbital     on Fragment
 --------------------------------------------------------------------------------------
     1       1      2.000     -10.058 au  C             1.00      1 S               1
                        (    -273.681 eV)
     2       2      2.000      -0.510 au  C             1.00      2 S               1
                        (     -13.876 eV)
     3       3       --         0.371 au  C             1.00      3 S               1
                        (      10.091 eV)
     4       4       --         5.428 au  C             1.00      4 S               1
                        (     147.707 eV)
     5       5       --        50.181 au  C             1.00      5 S               1
                        (    1365.486 eV)
     6       6      0.667      -0.199 au  C             1.00      1 P:x             1
                        (      -5.403 eV)
     7       7       --         0.173 au  C             1.00      2 P:x             1
                        (       4.709 eV)
     8       8       --         2.026 au  C             1.00      3 P:x             1
                        (      55.143 eV)
     9       9      0.667      -0.199 au  C             1.00      1 P:y             1
                        (      -5.403 eV)
    10      10       --         0.173 au  C             1.00      2 P:y             1
                        (       4.709 eV)
    11      11       --         2.026 au  C             1.00      3 P:y             1
                        (      55.143 eV)
    12      12      0.667      -0.199 au  C             1.00      1 P:z             1
                        (      -5.403 eV)
    13      13       --         0.173 au  C             1.00      2 P:z             1
                        (       4.709 eV)
    14      14       --         2.026 au  C             1.00      3 P:z             1
                        (      55.143 eV)
    15      15       --         1.232 au  C             1.00      1 D:z2            1
                        (      33.528 eV)
    16      16       --         1.232 au  C             1.00      1 D:x2-y2         1
                        (      33.528 eV)
    17      17       --         1.232 au  C             1.00      1 D:xy            1
                        (      33.528 eV)
    18      18       --         1.232 au  C             1.00      1 D:xz            1
                        (      33.528 eV)
    19      19       --         1.232 au  C             1.00      1 D:yz            1
                        (      33.528 eV)
    20      20      2.000     -10.058 au  C             1.00      1 S               2
                        (    -273.681 eV)
    21      21      2.000      -0.510 au  C             1.00      2 S               2
                        (     -13.876 eV)
    22      22       --         0.371 au  C             1.00      3 S               2
                        (      10.091 eV)
    23      23       --         5.428 au  C             1.00      4 S               2
                        (     147.707 eV)
    24      24       --        50.181 au  C             1.00      5 S               2
                        (    1365.486 eV)
    25      25      0.667      -0.199 au  C             1.00      1 P:x             2
                        (      -5.403 eV)
    26      26       --         0.173 au  C             1.00      2 P:x             2
                        (       4.709 eV)
    27      27       --         2.026 au  C             1.00      3 P:x             2
                        (      55.143 eV)
    28      28      0.667      -0.199 au  C             1.00      1 P:y             2
                        (      -5.403 eV)
    29      29       --         0.173 au  C             1.00      2 P:y             2
                        (       4.709 eV)
    30      30       --         2.026 au  C             1.00      3 P:y             2
                        (      55.143 eV)
    31      31      0.667      -0.199 au  C             1.00      1 P:z             2
                        (      -5.403 eV)
    32      32       --         0.173 au  C             1.00      2 P:z             2
                        (       4.709 eV)
    33      33       --         2.026 au  C             1.00      3 P:z             2
                        (      55.143 eV)
    34      34       --         1.232 au  C             1.00      1 D:z2            2
                        (      33.528 eV)
    35      35       --         1.232 au  C             1.00      1 D:x2-y2         2
                        (      33.528 eV)
    36      36       --         1.232 au  C             1.00      1 D:xy            2
                        (      33.528 eV)
    37      37       --         1.232 au  C             1.00      1 D:xz            2
                        (      33.528 eV)
    38      38       --         1.232 au  C             1.00      1 D:yz            2
                        (      33.528 eV)
    39      39      2.000     -10.058 au  C             1.00      1 S               3
                        (    -273.681 eV)
    40      40      2.000      -0.510 au  C             1.00      2 S               3
                        (     -13.876 eV)
    41      41       --         0.371 au  C             1.00      3 S               3
                        (      10.091 eV)
    42      42       --         5.428 au  C             1.00      4 S               3
                        (     147.707 eV)
    43      43       --        50.181 au  C             1.00      5 S               3
                        (    1365.486 eV)
    44      44      0.667      -0.199 au  C             1.00      1 P:x             3
                        (      -5.403 eV)
    45      45       --         0.173 au  C             1.00      2 P:x             3
                        (       4.709 eV)
    46      46       --         2.026 au  C             1.00      3 P:x             3
                        (      55.143 eV)
    47      47      0.667      -0.199 au  C             1.00      1 P:y             3
                        (      -5.403 eV)
    48      48       --         0.173 au  C             1.00      2 P:y             3
                        (       4.709 eV)
    49      49       --         2.026 au  C             1.00      3 P:y             3
                        (      55.143 eV)
    50      50      0.667      -0.199 au  C             1.00      1 P:z             3
                        (      -5.403 eV)
    51      51       --         0.173 au  C             1.00      2 P:z             3
                        (       4.709 eV)
    52      52       --         2.026 au  C             1.00      3 P:z             3
                        (      55.143 eV)
    53      53       --         1.232 au  C             1.00      1 D:z2            3
                        (      33.528 eV)
    54      54       --         1.232 au  C             1.00      1 D:x2-y2         3
                        (      33.528 eV)
    55      55       --         1.232 au  C             1.00      1 D:xy            3
                        (      33.528 eV)
    56      56       --         1.232 au  C             1.00      1 D:xz            3
                        (      33.528 eV)
    57      57       --         1.232 au  C             1.00      1 D:yz            3
                        (      33.528 eV)
    58      58      2.000     -10.058 au  C             1.00      1 S               4
                        (    -273.681 eV)
    59      59      2.000      -0.510 au  C             1.00      2 S               4
                        (     -13.876 eV)
    60      60       --         0.371 au  C             1.00      3 S               4
                        (      10.091 eV)
    61      61       --         5.428 au  C             1.00      4 S               4
                        (     147.707 eV)
    62      62       --        50.181 au  C             1.00      5 S               4
                        (    1365.486 eV)
    63      63      0.667      -0.199 au  C             1.00      1 P:x             4
                        (      -5.403 eV)
    64      64       --         0.173 au  C             1.00      2 P:x             4
                        (       4.709 eV)
    65      65       --         2.026 au  C             1.00      3 P:x             4
                        (      55.143 eV)
    66      66      0.667      -0.199 au  C             1.00      1 P:y             4
                        (      -5.403 eV)
    67      67       --         0.173 au  C             1.00      2 P:y             4
                        (       4.709 eV)
    68      68       --         2.026 au  C             1.00      3 P:y             4
                        (      55.143 eV)
    69      69      0.667      -0.199 au  C             1.00      1 P:z             4
                        (      -5.403 eV)
    70      70       --         0.173 au  C             1.00      2 P:z             4
                        (       4.709 eV)
    71      71       --         2.026 au  C             1.00      3 P:z             4
                        (      55.143 eV)
    72      72       --         1.232 au  C             1.00      1 D:z2            4
                        (      33.528 eV)
    73      73       --         1.232 au  C             1.00      1 D:x2-y2         4
                        (      33.528 eV)
    74      74       --         1.232 au  C             1.00      1 D:xy            4
                        (      33.528 eV)
    75      75       --         1.232 au  C             1.00      1 D:xz            4
                        (      33.528 eV)
    76      76       --         1.232 au  C             1.00      1 D:yz            4
                        (      33.528 eV)
    77      77      2.000     -10.058 au  C             1.00      1 S               5
                        (    -273.681 eV)
    78      78      2.000      -0.510 au  C             1.00      2 S               5
                        (     -13.876 eV)
    79      79       --         0.371 au  C             1.00      3 S               5
                        (      10.091 eV)
    80      80       --         5.428 au  C             1.00      4 S               5
                        (     147.707 eV)
    81      81       --        50.181 au  C             1.00      5 S               5
                        (    1365.486 eV)
    82      82      0.667      -0.199 au  C             1.00      1 P:x             5
                        (      -5.403 eV)
    83      83       --         0.173 au  C             1.00      2 P:x             5
                        (       4.709 eV)
    84      84       --         2.026 au  C             1.00      3 P:x             5
                        (      55.143 eV)
    85      85      0.667      -0.199 au  C             1.00      1 P:y             5
                        (      -5.403 eV)
    86      86       --         0.173 au  C             1.00      2 P:y             5
                        (       4.709 eV)
    87      87       --         2.026 au  C             1.00      3 P:y             5
                        (      55.143 eV)
    88      88      0.667      -0.199 au  C             1.00      1 P:z             5
                        (      -5.403 eV)
    89      89       --         0.173 au  C             1.00      2 P:z             5
                        (       4.709 eV)
    90      90       --         2.026 au  C             1.00      3 P:z             5
                        (      55.143 eV)
    91      91       --         1.232 au  C             1.00      1 D:z2            5
                        (      33.528 eV)
    92      92       --         1.232 au  C             1.00      1 D:x2-y2         5
                        (      33.528 eV)
    93      93       --         1.232 au  C             1.00      1 D:xy            5
                        (      33.528 eV)
    94      94       --         1.232 au  C             1.00      1 D:xz            5
                        (      33.528 eV)
    95      95       --         1.232 au  C             1.00      1 D:yz            5
                        (      33.528 eV)
    96      96      2.000     -10.058 au  C             1.00      1 S               6
                        (    -273.681 eV)
    97      97      2.000      -0.510 au  C             1.00      2 S               6
                        (     -13.876 eV)
    98      98       --         0.371 au  C             1.00      3 S               6
                        (      10.091 eV)
    99      99       --         5.428 au  C             1.00      4 S               6
                        (     147.707 eV)
   100     100       --        50.181 au  C             1.00      5 S               6
                        (    1365.486 eV)
   101     101      0.667      -0.199 au  C             1.00      1 P:x             6
                        (      -5.403 eV)
   102     102       --         0.173 au  C             1.00      2 P:x             6
                        (       4.709 eV)
   103     103       --         2.026 au  C             1.00      3 P:x             6
                        (      55.143 eV)
   104     104      0.667      -0.199 au  C             1.00      1 P:y             6
                        (      -5.403 eV)
   105     105       --         0.173 au  C             1.00      2 P:y             6
                        (       4.709 eV)
   106     106       --         2.026 au  C             1.00      3 P:y             6
                        (      55.143 eV)
   107     107      0.667      -0.199 au  C             1.00      1 P:z             6
                        (      -5.403 eV)
   108     108       --         0.173 au  C             1.00      2 P:z             6
                        (       4.709 eV)
   109     109       --         2.026 au  C             1.00      3 P:z             6
                        (      55.143 eV)
   110     110       --         1.232 au  C             1.00      1 D:z2            6
                        (      33.528 eV)
   111     111       --         1.232 au  C             1.00      1 D:x2-y2         6
                        (      33.528 eV)
   112     112       --         1.232 au  C             1.00      1 D:xy            6
                        (      33.528 eV)
   113     113       --         1.232 au  C             1.00      1 D:xz            6
                        (      33.528 eV)
   114     114       --         1.232 au  C             1.00      1 D:yz            6
                        (      33.528 eV)
   115     115      1.000      -0.244 au  H             1.00      1 S               7
                        (      -6.626 eV)
   116     116       --         0.093 au  H             1.00      2 S               7
                        (       2.536 eV)
   117     117       --         1.515 au  H             1.00      3 S               7
                        (      41.236 eV)
   118     118       --         0.400 au  H             1.00      1 P:x             7
                        (      10.872 eV)
   119     119       --         0.400 au  H             1.00      1 P:y             7
                        (      10.872 eV)
   120     120       --         0.400 au  H             1.00      1 P:z             7
                        (      10.872 eV)
   121     121      1.000      -0.244 au  H             1.00      1 S               8
                        (      -6.626 eV)
   122     122       --         0.093 au  H             1.00      2 S               8
                        (       2.536 eV)
   123     123       --         1.515 au  H             1.00      3 S               8
                        (      41.236 eV)
   124     124       --         0.400 au  H             1.00      1 P:x             8
                        (      10.872 eV)
   125     125       --         0.400 au  H             1.00      1 P:y             8
                        (      10.872 eV)
   126     126       --         0.400 au  H             1.00      1 P:z             8
                        (      10.872 eV)
   127     127      1.000      -0.244 au  H             1.00      1 S               9
                        (      -6.626 eV)
   128     128       --         0.093 au  H             1.00      2 S               9
                        (       2.536 eV)
   129     129       --         1.515 au  H             1.00      3 S               9
                        (      41.236 eV)
   130     130       --         0.400 au  H             1.00      1 P:x             9
                        (      10.872 eV)
   131     131       --         0.400 au  H             1.00      1 P:y             9
                        (      10.872 eV)
   132     132       --         0.400 au  H             1.00      1 P:z             9
                        (      10.872 eV)
   133     133      1.000      -0.244 au  H             1.00      1 S              10
                        (      -6.626 eV)
   134     134       --         0.093 au  H             1.00      2 S              10
                        (       2.536 eV)
   135     135       --         1.515 au  H             1.00      3 S              10
                        (      41.236 eV)
   136     136       --         0.400 au  H             1.00      1 P:x            10
                        (      10.872 eV)
   137     137       --         0.400 au  H             1.00      1 P:y            10
                        (      10.872 eV)
   138     138       --         0.400 au  H             1.00      1 P:z            10
                        (      10.872 eV)
   139     139      1.000      -0.244 au  H             1.00      1 S              11
                        (      -6.626 eV)
   140     140       --         0.093 au  H             1.00      2 S              11
                        (       2.536 eV)
   141     141       --         1.515 au  H             1.00      3 S              11
                        (      41.236 eV)
   142     142       --         0.400 au  H             1.00      1 P:x            11
                        (      10.872 eV)
   143     143       --         0.400 au  H             1.00      1 P:y            11
                        (      10.872 eV)
   144     144       --         0.400 au  H             1.00      1 P:z            11
                        (      10.872 eV)
   145     145      1.000      -0.244 au  H             1.00      1 S              12
                        (      -6.626 eV)
   146     146       --         0.093 au  H             1.00      2 S              12
                        (       2.536 eV)
   147     147       --         1.515 au  H             1.00      3 S              12
                        (      41.236 eV)
   148     148       --         0.400 au  H             1.00      1 P:x            12
                        (      10.872 eV)
   149     149       --         0.400 au  H             1.00      1 P:y            12
                        (      10.872 eV)
   150     150       --         0.400 au  H             1.00      1 P:z            12
                        (      10.872 eV)



 ================================
 (Slater-type)  F U N C T I O N S  ***  (Basis and Fit)  ***
 ================================
  

 Atom Type    1  (C)
 ==============

 Valence Basis Sets:   9
 -----------------------
   1 S    7.680000
   1 S    5.000000
   2 S    1.280000
   2 S    2.100000
   2 S    4.600000
   2 P    0.820000
   2 P    1.480000
   2 P    2.940000
   3 D    2.200000

 Atom Type    2  (H)
 ==============

 Valence Basis Sets:   4
 -----------------------
   1 S    0.690000
   1 S    0.920000
   1 S    1.580000
   2 P    1.250000


 BAS: List of all Elementary Cartesian Basis Functions
 =====================================================

 The numbering in the list below (to the right of the function characteristics) is referred
 to in print-outs of MO eigenvectors and Mulliken populations in the BAS representation
 (as contrasted to the SFO representation).

 Notes:
 1. The functions are characterized by a polynomial prefactor (powers of x,y,z and r) and
    an exponential decay factor alpha.
 2. Since the basis sets are specific for an atom TYPE, the individual functions occur on
    all atoms of that type.
 3. The word 'Core' in the left margin signals that it is a Core Function (CF) : not a
    degree of freedom in the valence set, but only used to ensure orthogonalization of
    the other valence basis functions on the frozen Core Orbitals.


 (power of) X  Y  Z  R     Alpha  on Atom
            ==========     =====     ==========

 C                                    1    2    3    4    5    6
                                  ---------------------------------------------------------------------------
            0  0  0  0     7.680      1   21   41   61   81  101
            0  0  0  0     5.000      2   22   42   62   82  102
            0  0  0  1     1.280      3   23   43   63   83  103
            0  0  0  1     2.100      4   24   44   64   84  104
            0  0  0  1     4.600      5   25   45   65   85  105
            1  0  0  0     0.820      6   26   46   66   86  106
            0  1  0  0     0.820      7   27   47   67   87  107
            0  0  1  0     0.820      8   28   48   68   88  108
            1  0  0  0     1.480      9   29   49   69   89  109
            0  1  0  0     1.480     10   30   50   70   90  110
            0  0  1  0     1.480     11   31   51   71   91  111
            1  0  0  0     2.940     12   32   52   72   92  112
            0  1  0  0     2.940     13   33   53   73   93  113
            0  0  1  0     2.940     14   34   54   74   94  114
            2  0  0  0     2.200     15   35   55   75   95  115
            1  1  0  0     2.200     16   36   56   76   96  116
            1  0  1  0     2.200     17   37   57   77   97  117
            0  2  0  0     2.200     18   38   58   78   98  118
            0  1  1  0     2.200     19   39   59   79   99  119
            0  0  2  0     2.200     20   40   60   80  100  120

 H                                    7    8    9   10   11   12
                                  ---------------------------------------------------------------------------
            0  0  0  0     0.690    121  127  133  139  145  151
            0  0  0  0     0.920    122  128  134  140  146  152
            0  0  0  0     1.580    123  129  135  141  147  153
            1  0  0  0     1.250    124  130  136  142  148  154
            0  1  0  0     1.250    125  131  137  143  149  155
            0  0  1  0     1.250    126  132  138  144  150  156

 Total number of charge fitting functions (nprimf)       804
 Total number of Cartesian basis functions (naos)        156
 Total number of Cartesian core functions  (ncos)          0

1
 ***************************************************************************************************



                                              ***********************
                                              *  T E C H N I C A L  *
                                              ***********************
  



 =============================================================
 P A R A L L E L I Z A T I O N  and  V E C T O R I Z A T I O N
 =============================================================
  
 Nr of parallel processes:                                6
 Maximum vector length in NumInt loops:                 128



 =====================
 S C F   U P D A T E S
 =====================
  
 Max. nr. of cycles:                               300
 Convergence criterion:                              0.0000010000
   secondary criterion:                              0.0010000000

 Mix parameter (when DIIS does not apply):           0.2000000000
 Mixed ADIIS+SDIIS will be used                  
    Max number of expansion vectors:                10
    Pure ADIIS when Max([F,P]) is above              0.1000000000
    Pure SDIIS when Max([F,P]) is below              0.0010000000
 Automatic ElectronSmearing (in case of problematic SCF convergence) disabled



 =================
 P R E C I S I O N  ***  (General: NumInt, NeglectFunctionTails, ...)  ***
 =================
  

 NumInt:           Target precision:                 4.0000000000
 -------           Initial precision:                4.0000000000
                   Min. precision (optimization):    4.0000000000

 Neglect Functions:          Basis functions:        0.1000000000E-13
 ------------------          Fit functions:          0.1000000000E-13



 ===========================
 L I N E A R   S C A L I N G
 ===========================
  

 Cut-off radii density fit:                        0.1000000000E-07
 Overlap cut-off criterion AO matrix elements:     0.1000000000E-05
 Cut-offs for Coulomb potential and fitted density:0.1000000000E-07
 Cut-off criterion for Coulomb multipole terms:    0.1000000000E-07
 Progressive Convergence parameter:                 0.000000000    
1
 ***************************************************************************************************



                                            ***************************
                                            *  C O M P U T A T I O N  *
                                            ***************************
  

 Number of elements of the density matrix on this node (used, total):      1962     12246



 ===========================================
 Numerical Integration : Fuzzy Cells (Becke)
 ===========================================
  
 Becke grid quality: NORMAL         
  
 Lebedev angular grid order:             min:  11 max:  23
 Nr. of radial points:                   min:  46 max:  52

 Total nr. of points:      75656
 Nr. of blocks:              592
 Block length:               128
 Nr. of dummy points:        120


 Test of Precision of the Numerical Integration Grid
 ===================================================

 Integral of the Total Core Density:                   0.00000000000000



 ========================
 Density Fitting (zlmFit)
 ========================
  
 ZlmFit Fit Quality: NORMAL         
  
 Max L-expansion:                        min:   5 max:   6
 Nr. of radial interpolation points:     min:  36 max:  48



 =====
 S C F  ***  ScaSCF  ***
 =====
  
 Initial density matrix is calculated as sum of fragments

 CYCLE    1
 SCF Error: norm([F,P])=      5.990920492325, max([F,P])=      0.980221674762
 orbitals (Q,E):
 ---------------
 A :12...31          ( 2.00    -0.6583)  ( 2.00    -0.6250)  ( 2.00    -0.5884)  ( 2.00    -0.5694)
                     ( 2.00    -0.5687)  ( 2.00    -0.5031)  ( 2.00    -0.5018)  ( 2.00    -0.5014)
                     ( 2.00    -0.4057)  ( 2.00    -0.4054)  ( 0.00    -0.2151)  ( 0.00    -0.2151)
                     ( 0.00    -0.0768)  ( 0.00    -0.0731)  ( 0.00    -0.0375)  ( 0.00    -0.0375)
                     ( 0.00    -0.0112)  ( 0.00    -0.0111)  ( 0.00     0.0270)  ( 0.00     0.0510)

 CYCLE    2
   MIX coefficients:  0.8000  0.2000
 SCF Error: norm([F,P])=      0.892325782856, max([F,P])=      0.187094032452
 orbitals (Q,E):
 ---------------
 A :12...22          ( 2.00    -0.5946)  ( 2.00    -0.5421)  ( 2.00    -0.5328)  ( 2.00    -0.5025)
                     ( 2.00    -0.5017)  ( 2.00    -0.4366)  ( 2.00    -0.4345)  ( 2.00    -0.4341)
                     ( 2.00    -0.3390)  ( 2.00    -0.3387)  ( 0.00    -0.1501)

 CYCLE    3
  SDIIS (wt  0.000): -1.2669  2.2669
 A-DIIS (wt  1.000):  0.0000  1.0000
  DIIS coefficients:  0.0000  1.0000
 SCF Error: norm([F,P])=      0.521452800189, max([F,P])=      0.102601284233
 orbitals (Q,E):
 ---------------
 A :12...22          ( 2.00    -0.3986)  ( 2.00    -0.3564)  ( 2.00    -0.2969)  ( 2.00    -0.2960)
                     ( 2.00    -0.2951)  ( 2.00    -0.2475)  ( 2.00    -0.2229)  ( 2.00    -0.2225)
                     ( 2.00    -0.1500)  ( 2.00    -0.1497)  ( 0.00     0.0284)

 CYCLE    4
  SDIIS (wt  0.000):  0.1837  0.3521  0.4642
 A-DIIS (wt  1.000): -0.0000  0.6402  0.3598
  DIIS coefficients: -0.0000  0.6402  0.3598
 SCF Error: norm([F,P])=      0.743253493450, max([F,P])=      0.172646371962
 orbitals (Q,E):
 ---------------
 A :12...22          ( 2.00    -0.4673)  ( 2.00    -0.4038)  ( 2.00    -0.3933)  ( 2.00    -0.3711)
                     ( 2.00    -0.3704)  ( 2.00    -0.3293)  ( 2.00    -0.2972)  ( 2.00    -0.2967)
                     ( 2.00    -0.2287)  ( 2.00    -0.2285)  ( 0.00    -0.0405)

 CYCLE    5
  SDIIS (wt  0.902): -0.0172  0.2160  0.0732  0.7280
 A-DIIS (wt  0.098):  0.0000  0.0000  0.0000  1.0000
  DIIS coefficients: -0.0155  0.1947  0.0660  0.7548
 SCF Error: norm([F,P])=      0.076225786681, max([F,P])=      0.010729245391
 orbitals (Q,E):
 ---------------
 A :12...22          ( 2.00    -0.4793)  ( 2.00    -0.4187)  ( 2.00    -0.4084)  ( 2.00    -0.3831)
                     ( 2.00    -0.3822)  ( 2.00    -0.3380)  ( 2.00    -0.3112)  ( 2.00    -0.3107)
                     ( 2.00    -0.2386)  ( 2.00    -0.2382)  ( 0.00    -0.0510)

 CYCLE    6
  SDIIS (wt  0.993): -0.0029  0.0315  0.0082  0.1928  0.7703
 A-DIIS (wt  0.007):  0.0000  0.0000  0.0000  0.0000  1.0000
  DIIS coefficients: -0.0028  0.0313  0.0082  0.1913  0.7720
 SCF Error: norm([F,P])=      0.010721834235, max([F,P])=      0.001737436024
 orbitals (Q,E):
 ---------------
 A :12...22          ( 2.00    -0.4790)  ( 2.00    -0.4180)  ( 2.00    -0.4073)  ( 2.00    -0.3829)
                     ( 2.00    -0.3821)  ( 2.00    -0.3374)  ( 2.00    -0.3106)  ( 2.00    -0.3101)
                     ( 2.00    -0.2378)  ( 2.00    -0.2375)  ( 0.00    -0.0502)

 CYCLE    7
  SDIIS (wt  1.000):  0.0006  0.0041  0.0008  0.0359  0.1718  0.7868
  DIIS coefficients:  0.0006  0.0041  0.0008  0.0359  0.1718  0.7868
 SCF Error: norm([F,P])=      0.001304528698, max([F,P])=      0.000325026335
 orbitals (Q,E):
 ---------------
 A :12...22          ( 2.00    -0.4791)  ( 2.00    -0.4181)  ( 2.00    -0.4075)  ( 2.00    -0.3830)
                     ( 2.00    -0.3821)  ( 2.00    -0.3376)  ( 2.00    -0.3107)  ( 2.00    -0.3102)
                     ( 2.00    -0.2380)  ( 2.00    -0.2376)  ( 0.00    -0.0504)

 CYCLE    8
  SDIIS (wt  1.000):  0.0007  0.0007  0.0000  0.0123  0.0682  0.5153  0.4028
  DIIS coefficients:  0.0007  0.0007  0.0000  0.0123  0.0682  0.5153  0.4028
 SCF Error: norm([F,P])=      0.000878702829, max([F,P])=      0.000213085517
 orbitals (Q,E):
 ---------------
 A :12...22          ( 2.00    -0.4791)  ( 2.00    -0.4181)  ( 2.00    -0.4075)  ( 2.00    -0.3830)
                     ( 2.00    -0.3822)  ( 2.00    -0.3376)  ( 2.00    -0.3107)  ( 2.00    -0.3103)
                     ( 2.00    -0.2380)  ( 2.00    -0.2377)  ( 0.00    -0.0504)

 CYCLE    9
  SDIIS (wt  1.000):  0.0001 -0.0002 -0.0000 -0.0004 -0.0008  0.0135  0.0802  0.9077
  DIIS coefficients:  0.0001 -0.0002 -0.0000 -0.0004 -0.0008  0.0135  0.0802  0.9077
 SCF Error: norm([F,P])=      0.000072518898, max([F,P])=      0.000016638429
 orbitals (Q,E):
 ---------------
 A :12...22          ( 2.00    -0.4791)  ( 2.00    -0.4181)  ( 2.00    -0.4076)  ( 2.00    -0.3830)
                     ( 2.00    -0.3822)  ( 2.00    -0.3376)  ( 2.00    -0.3107)  ( 2.00    -0.3103)
                     ( 2.00    -0.2380)  ( 2.00    -0.2377)  ( 0.00    -0.0504)

 CYCLE   10
  SDIIS (wt  1.000):  0.0000 -0.0001 -0.0000 -0.0002 -0.0004  0.0057  0.0352  0.4018  0.5580
  DIIS coefficients:  0.0000 -0.0001 -0.0000 -0.0002 -0.0004  0.0057  0.0352  0.4018  0.5580
 SCF Error: norm([F,P])=      0.000007702851, max([F,P])=      0.000001908409
 orbitals (Q,E):
 ---------------
 A :12...22          ( 2.00    -0.4791)  ( 2.00    -0.4181)  ( 2.00    -0.4076)  ( 2.00    -0.3830)
                     ( 2.00    -0.3822)  ( 2.00    -0.3376)  ( 2.00    -0.3107)  ( 2.00    -0.3103)
                     ( 2.00    -0.2380)  ( 2.00    -0.2377)  ( 0.00    -0.0504)

 CYCLE   11
  SDIIS (wt  1.000):  0.0000 -0.0000 -0.0000  0.0000 -0.0000 -0.0001 -0.0006 -0.0055  0.5171  0.4892
  DIIS coefficients:  0.0000 -0.0000 -0.0000  0.0000 -0.0000 -0.0001 -0.0006 -0.0055  0.5171  0.4892
 SCF Error: norm([F,P])=      0.000008030743, max([F,P])=      0.000002028770
 orbitals (Q,E):
 ---------------
 A :12...22          ( 2.00    -0.4791)  ( 2.00    -0.4181)  ( 2.00    -0.4076)  ( 2.00    -0.3830)
                     ( 2.00    -0.3822)  ( 2.00    -0.3376)  ( 2.00    -0.3107)  ( 2.00    -0.3103)
                     ( 2.00    -0.2380)  ( 2.00    -0.2377)  ( 0.00    -0.0504)

 CYCLE   12
  SDIIS (wt  1.000): -0.0000 -0.0000  0.0000 -0.0000 -0.0001 -0.0004 -0.0037  0.1267  0.1211  0.7563
  DIIS coefficients: -0.0000 -0.0000  0.0000 -0.0000 -0.0001 -0.0004 -0.0037  0.1267  0.1211  0.7563
 SCF Error: norm([F,P])=      0.000000095928, max([F,P])=      0.000000018396
 orbitals (Q,E):
 ---------------
 A :12...22          ( 2.00    -0.4791)  ( 2.00    -0.4181)  ( 2.00    -0.4076)  ( 2.00    -0.3830)
                     ( 2.00    -0.3822)  ( 2.00    -0.3376)  ( 2.00    -0.3107)  ( 2.00    -0.3103)
                     ( 2.00    -0.2380)  ( 2.00    -0.2377)  ( 0.00    -0.0504)

 SCF CONVERGED

 CYCLE   13
1
 ***************************************************************************************************



                                                *******************
                                                *  R E S U L T S  *
                                                *******************
  
 *** Using FIT density in Focky
  SDIIS (wt  1.000): -0.0000  0.0000 -0.0000 -0.0000 -0.0001 -0.0012  0.0427  0.0409  0.4693  0.4485
  DIIS coefficients: -0.0000  0.0000 -0.0000 -0.0000 -0.0001 -0.0012  0.0427  0.0409  0.4693  0.4485
 SCF Error: norm([F,P])=      0.000000081137, max([F,P])=      0.000000019539

 Orbital Energies, per Irrep and Spin:
 ======================================
                        Occup              E (au)              E (eV)       Diff (eV) with prev. cycle
                        -----      --------------------        ------       --------------------------
 A
              12        2.000     -0.47913645789481E+00       -13.038              -4.83E-09
              13        2.000     -0.41811477200800E+00       -11.377              -4.85E-09
              14        2.000     -0.40755214723183E+00       -11.090               9.26E-10
              15        2.000     -0.38298886747661E+00       -10.422               5.20E-10
              16        2.000     -0.38217605598078E+00       -10.400              -7.54E-09
              17        2.000     -0.33758265575604E+00        -9.186              -2.89E-09
              18        2.000     -0.31073744457208E+00        -8.456               8.72E-10
              19        2.000     -0.31027318980446E+00        -8.443              -4.69E-09
              20        2.000     -0.23800694664671E+00        -6.476               1.05E-09
              21        2.000     -0.23770084012891E+00        -6.468              -5.10E-09
              22        0.000     -0.50414444205600E-01        -1.372
              23        0.000     -0.50310100329770E-01        -1.369
              24        0.000      0.20321090029573E-02         0.055
              25        0.000      0.27839782218412E-01         0.758
              26        0.000      0.27856947915169E-01         0.758
              27        0.000      0.60684744863474E-01         1.651
              28        0.000      0.60786403190649E-01         1.654
              29        0.000      0.90655406092903E-01         2.467
              30        0.000      0.96116641092819E-01         2.615
              31        0.000      0.14212008447768E+00         3.867
  
 HOMO :       21 A                -0.23770084012891E+00
 LUMO :       22 A                -0.50414444205600E-01
  


 All Electron Calculation, thus no Orbital Energies of the Core Orbitals are calculated


 Fit test: (difference of exact and fit density, squared integrated, result summed over spins)
         Sum-of-Fragments:                             0.00000000048365
         Orthogonalized Fragments:                     0.00013295932867
         SCF:                                          0.00048697434562



 ==========================
 Electron Density at Nuclei
 ==========================
  
 The electron density is calculated at points on a small sphere around the center of a nucleus.
 The printed electron density is the average electron density on these points.
 The radius of the sphere is the printed approximate finite nuclear radius.

         Atom        Nuclear Radius (Angstrom)             Electron Density (a.u.)
         ----        -------------------------             -----------------------
     1)   C                 0.0000320678                              126.51440
     2)   C                 0.0000320678                              126.51558
     3)   C                 0.0000320678                              126.51474
     4)   C                 0.0000320678                              126.51441
     5)   C                 0.0000320678                              126.51558
     6)   C                 0.0000320678                              126.51471
     7)   H                 0.0000181514                                0.49866
     8)   H                 0.0000181514                                0.49877
     9)   H                 0.0000181514                                0.49864
    10)   H                 0.0000181514                                0.49866
    11)   H                 0.0000181514                                0.49872
    12)   H                 0.0000181514                                0.49865



 =======================================
 M U L L I K E N   P O P U L A T I O N S
 =======================================
  
 The survey below gives for each atom:
 a) the total charge (Z minus electrons)
 b) the net spin polarization (nr of electrons spin-A minus spin-B)
 c) for each spin the atomic electron valence density (integrated) per L-value.

 Atom              Charge    Spin density          S         P         D         F
 ----              ------    ------------       ------    ------    ------    ------
 1 C               0.1754                       3.0649    2.6987    0.0610    0.0000
 2 C               0.1754                       3.0652    2.6985    0.0610    0.0000
 3 C               0.1759                       3.0648    2.6985    0.0609    0.0000
 4 C               0.1754                       3.0649    2.6987    0.0610    0.0000
 5 C               0.1754                       3.0652    2.6985    0.0610    0.0000
 6 C               0.1758                       3.0648    2.6985    0.0609    0.0000
 7 H              -0.1760                       1.1045    0.0715    0.0000    0.0000
 8 H              -0.1756                       1.1042    0.0714    0.0000    0.0000
 9 H              -0.1750                       1.1037    0.0714    0.0000    0.0000
 10 H             -0.1760                       1.1045    0.0715    0.0000    0.0000
 11 H             -0.1756                       1.1042    0.0714    0.0000    0.0000
 12 H             -0.1750                       1.1037    0.0714    0.0000    0.0000

 Populations of individual BAS functions
 ----------------------------------------
 1 C            0.4869  1.5144  0.2298  0.8872 -0.0535 -0.1033  0.1475 -0.2377  0.8055  0.6780
                0.8823  0.2001  0.1366  0.1899  0.0268  0.0122  0.0174 -0.0175  0.0040  0.0181
 2 C            0.4870  1.5144  0.2300  0.8873 -0.0535 -0.2027  0.1470 -0.1391  0.8622  0.6782
                0.8263  0.1926  0.1366  0.1973  0.0182  0.0062  0.0220 -0.0176  0.0100  0.0221
 3 C            0.4869  1.5144  0.2295  0.8874 -0.0535 -0.2070  0.1476 -0.1349  0.8647  0.6780
                0.8236  0.1922  0.1366  0.1977  0.0179  0.0059  0.0216 -0.0175  0.0103  0.0227
 4 C            0.4869  1.5144  0.2298  0.8872 -0.0535 -0.1033  0.1475 -0.2378  0.8055  0.6780
                0.8823  0.2001  0.1366  0.1899  0.0268  0.0122  0.0174 -0.0175  0.0040  0.0181
 5 C            0.4870  1.5144  0.2300  0.8873 -0.0535 -0.2027  0.1470 -0.1391  0.8622  0.6782
                0.8263  0.1926  0.1366  0.1973  0.0182  0.0062  0.0220 -0.0176  0.0100  0.0221
 6 C            0.4869  1.5144  0.2296  0.8874 -0.0535 -0.2070  0.1476 -0.1349  0.8646  0.6780
                0.8236  0.1921  0.1366  0.1977  0.0179  0.0059  0.0216 -0.0175  0.0103  0.0227
 7 H            0.2097  0.5760  0.3188  0.0289  0.0217  0.0208
 8 H            0.2093  0.5760  0.3189  0.0294  0.0217  0.0203
 9 H            0.2086  0.5762  0.3189  0.0162  0.0217  0.0334
 10 H           0.2097  0.5760  0.3188  0.0289  0.0217  0.0208
 11 H           0.2093  0.5761  0.3188  0.0294  0.0217  0.0202
 12 H           0.2085  0.5762  0.3189  0.0162  0.0217  0.0334

 Gross Charges per Atom (Z minus electrons)
 ==========================================
             0.1754    0.1754    0.1759    0.1754    0.1754    0.1758   -0.1760   -0.1756   -0.1750   -0.1760
            -0.1756   -0.1750
 Net Total: -0.00000000


 Atom-Atom Population Matrix (off-diagonal elements not doubled)
 ===============================================================

     1 :     4.5229
     2 :     0.5416    4.5223
     3 :    -0.0109    0.5417    4.5223
     4 :    -0.0557   -0.0103    0.5420    4.5229
     5 :    -0.0103   -0.0553   -0.0107    0.5416    4.5223
     6 :     0.5420   -0.0107   -0.0557   -0.0109    0.5417    4.5224
     7 :    -0.0537    0.3939   -0.0534    0.0022    0.0041    0.0021    0.9819
     8 :     0.0021   -0.0536    0.3939   -0.0536    0.0022    0.0041   -0.0476    0.9821
     9 :     0.0041    0.0022   -0.0533    0.3939   -0.0535    0.0021   -0.0038   -0.0477    0.9808
    10 :     0.0022    0.0041    0.0021   -0.0537    0.3939   -0.0534    0.0015   -0.0038   -0.0474    0.9819
    11 :    -0.0536    0.0022    0.0041    0.0021   -0.0536    0.3939   -0.0038    0.0016   -0.0039   -0.0476
             0.9820
    12 :     0.3939   -0.0535    0.0021    0.0041    0.0022   -0.0533   -0.0474   -0.0039    0.0016   -0.0038
            -0.0477    0.9808



 =================================================
 H I R S H F E L D   C H A R G E   A N A L Y S I S
 =================================================
  
 For each fragment: the (numerical) integral of rho(scf) * rho(fragment)/rho(sum-of-fragments)
 (nuclear charges are included, electrons are counted negative)

 The fragments and their ordering are defined in the early G E O M E T R Y output section.
 If you use single-atom fragments, this usually implies that all atoms of the same
 chemical type are grouped together. This may not be the order in which you listed them
 in the input file!

    1  C                        -0.0463
    2  C                        -0.0463
    3  C                        -0.0464
    4  C                        -0.0463
    5  C                        -0.0463
    6  C                        -0.0464
    7  H                         0.0465
    8  H                         0.0461
    9  H                         0.0462
   10  H                         0.0465
   11  H                         0.0461
   12  H                         0.0462

 Sum of these charges (accuracy NumInt/Tails) =          -0.00005831



 =============================
 V O R O N O I   C H A R G E S
 =============================
  
 For each atom: the (numerical) integral of the total electronic charge density in its Voronoi cell,
 i.e. the region of space that is closer to that atom than to any other atom.
 (cf. Wigner-Seitz cells in crystals)

 Within the Voronoi cell the subintegrals over the atomic sphere and the remaining part are evaluated
 separately to give the numbers of electrons (negative charge) in these regions.
 The net total charge in the cell (including the nuclear charge) is also given.

 Values are provided for
    a) the Initial (sum-of-fragments) density
    b) the Orthogonalized-Fragments density
    c) the SCF density
    d) the Voronoi Deformation Density (VDD): the difference SCF-Initial for the complete atomic cell


  Atom                Initial                    OrthFrag                   SCF
             Sphere RestCell NetTotal   Sphere RestCell NetTotal   Sphere RestCell NetTotal      VDD
 -----       ------------------------   ------------------------   ------------------------    -----
    1 C      -2.269   -3.183    0.548   -2.452   -3.136    0.412   -2.303   -3.205    0.492   -0.056
    2 C      -2.269   -3.188    0.543   -2.452   -3.137    0.411   -2.303   -3.207    0.490   -0.053
    3 C      -2.269   -3.193    0.539   -2.452   -3.143    0.405   -2.303   -3.213    0.484   -0.055
    4 C      -2.269   -3.183    0.548   -2.452   -3.136    0.412   -2.303   -3.205    0.492   -0.056
    5 C      -2.269   -3.188    0.543   -2.452   -3.137    0.411   -2.303   -3.207    0.490   -0.053
    6 C      -2.269   -3.193    0.539   -2.452   -3.143    0.405   -2.303   -3.213    0.484   -0.055
    7 H      -0.075   -1.475   -0.550   -0.096   -1.319   -0.414   -0.109   -1.385   -0.494    0.056
    8 H      -0.075   -1.463   -0.538   -0.096   -1.309   -0.405   -0.109   -1.375   -0.484    0.054
    9 H      -0.075   -1.467   -0.542   -0.096   -1.314   -0.409   -0.109   -1.380   -0.489    0.053
   10 H      -0.075   -1.475   -0.550   -0.096   -1.319   -0.414   -0.109   -1.385   -0.494    0.056
   11 H      -0.075   -1.463   -0.538   -0.096   -1.309   -0.405   -0.109   -1.375   -0.484    0.054
   12 H      -0.075   -1.467   -0.542   -0.096   -1.314   -0.409   -0.109   -1.380   -0.489    0.053
 ---------------------------------------------------------------------------------------------------
 Total NetCharge:              -0.000                     -0.000                     -0.000    0.000
 (accuracy NumInt/Tails)

 Remark: the 'NetTotal' Voronoi charges often do not match the Mulliken and/or Hirshfeld charges very
 well. This is caused by the fact that chemically different atoms are not treated in accordance with
 their relative sizes. (Voronoi cells are defined by boundary planes halfway between the atoms.)
 However, the CHANGES in charge, comparing 'Initial' to 'SCF' for instance, do give a fair indication
 of the flow of charge caused by the relaxation from sum-of-fragments to self-consistency.

 Warning: the absolute accuracy of the VDD charges obtained using the Fuzzy Cells (Becke) integration
 scheme is much poorer than the one obtained with an 'equivalent' Voronoi integration grid. 



 =================================================================
 M U L T I P O L E   D E R I V E D   C H A R G E   A N A L Y S I S
 =================================================================

 This charge analysis uses the atomic multipoles (obtained from the fitted density) up to some level X,
 and reconstructs these multipoles exactly (up to level X) by distributing charges over all atoms.
 This is achieved by using Lagrange multipliers and a weight function to keep the multipoles local.

 Dummy atoms can be included (by setting INCDUM in MDC-block to 1) to obtain a fractional charge.
 This is generally useful and necessary only for small symmetrical molecules, when there are not
 enough degrees of freedom to reconstruct the multipoles.

 Since the atomic multipoles are reconstructed up to level X,
 the molecular multipoles are represented also up to level X.
 The recommended level is to reconstruct up to quadrupole : -> MDC-q charges.

 See: M. Swart, P.Th. van Duijnen, J.G. Snijders, J.Comput.Chem., (2001), p. 79-88.

 ------------------------------------------------------------- 
 Atomic electronic multipole moments from SCF equations (a.u.)
 ------------------------------------------------------------- 

   atom        charge        dip-x     dip-y     dip-z      quad-xx   quad-xy   quad-xz   quad-yy   quad-yz   quad-zz
 --------------------------------------------------------------------------------------------------------------------
    1 C      0.060863     0.001197  0.000000 -0.047121     0.468959  0.000000 -0.001420 -0.996647 -0.000000  0.527687
    2 C      0.060556    -0.042090  0.000000 -0.025497     0.509490  0.000000  0.015379 -0.993487  0.000000  0.483996
    3 C      0.060496    -0.042440  0.000000  0.023533     0.511514 -0.000000 -0.014610 -0.995239 -0.000000  0.483725
    4 C      0.060864    -0.001220  0.000000  0.047122     0.468974  0.000000 -0.001469 -0.996649 -0.000000  0.527676
    5 C      0.060555     0.042088  0.000000  0.025496     0.509498  0.000000  0.015383 -0.993484 -0.000000  0.483986
    6 C      0.060488     0.042414 -0.000000 -0.023507     0.511534  0.000000 -0.014587 -0.995236  0.000000  0.483702
    7 H     -0.060364    -0.019615 -0.000000 -0.011890     0.160496  0.000000  0.080517 -0.195210  0.000000  0.034714
    8 H     -0.060875    -0.019668 -0.000000  0.010942     0.170446 -0.000000 -0.076633 -0.195832  0.000000  0.025387
    9 H     -0.060678    -0.000616 -0.000000  0.022625    -0.038537  0.000000 -0.004209 -0.194896  0.000000  0.233433
   10 H     -0.060363     0.019616  0.000000  0.011890     0.160497 -0.000000  0.080519 -0.195208 -0.000000  0.034712
   11 H     -0.060865     0.019687  0.000000 -0.010943     0.170452  0.000000 -0.076627 -0.195828  0.000000  0.025375
   12 H     -0.060678     0.000599 -0.000000 -0.022625    -0.038543 -0.000000 -0.004190 -0.194894 -0.000000  0.233437

 --------------------------------------- 
 Multipole derived atomic charges (a.u.)
 --------------------------------------- 

 The MDC-m charges are just the Monopole terms in the multipole expansion, while for the MDC-d charges
 also the Dipoles are reconstructed. The usually preferred charges are the MDC-q charges.
 These reconstruct the Monopoles, Dipoles and Quadrupoles (both atomic AND molecular).

        Atom    Level:     MDC-m        MDC-d        MDC-q
 ---------------------------------------------------------
     1     C            0.060863     0.034924    -0.125986
     2     C            0.060556     0.034532    -0.128041
     3     C            0.060496     0.034623    -0.127854
     4     C            0.060864     0.034925    -0.125980
     5     C            0.060555     0.034530    -0.128047
     6     C            0.060488     0.034611    -0.127827
     7     H           -0.060364    -0.034060     0.128096
     8     H           -0.060875    -0.034928     0.127082
     9     H           -0.060678    -0.035085     0.126699
    10     H           -0.060363    -0.034061     0.128096
    11     H           -0.060865    -0.034926     0.127064
    12     H           -0.060678    -0.035086     0.126699

 ------------------------------------------------ 
 Average absolute deviations in atomic multipoles
 ------------------------------------------------ 

 Stated here are the average differences between the atomic multipoles
 and the reconstructed atomic multipoles (from the distributed charges).
 If these values are not zero, this means there are not enough degrees of freedom,
 to be able to reconstruct the atomic multipoles. (This usually happens only
 for small and/or highly symmetric molecules). If this is the case, one could add
 dummy atoms as extra point charges (and setting INCDUM in MDC-block to 1).

 Level:                                 MDC-d        MDC-q
 ---------------------------------------------------------
 Charge   (a.u.)                       0.0000       0.0000
 Dipole   (Debye)                      0.0000       0.0000
 Quad.    (a.u.)                       0.2134       0.0000

 --------------------------------------- 
 Represented molecular multipole moments
 --------------------------------------- 

 Given here are the Molecular multipole moments from the atomic charges, and from the Fit Density.
 Note that the atomic charges represent the latter, NOT the ones from the Exact density.

            Q (a.u.)             Dipole moment (Debye)                                          Quadrupole moment (a.u.)
                                 x         y         z              xx        xy        xz        yy        yz        zz
------------------------------------------------------------------------------------------------------------------------
MDC-m        -0.0000        0.0001   -0.0000   -0.0000         -1.3802    0.0003    0.0174    2.7587   -0.0001   -1.3785
MDC-d        -0.0000       -0.0001   -0.0000    0.0000         -0.7734   -0.0003    0.0261    1.5782    0.0001   -0.8048
MDC-q        -0.0000       -0.0001   -0.0000    0.0000          2.9004   -0.0003    0.0232   -5.7910    0.0001    2.8906
 
Fit.Dens.    -0.0000       -0.0001    0.0000    0.0000          2.9004   -0.0003    0.0222   -5.7910    0.0001    2.8906



 =============
 Dipole Moment  ***  (Debye)  ***
 =============
  
 Vector   :        -0.00006250      0.00000007      0.00003047
 Magnitude:         0.00006953

 This molecular dipole moment is calculated with analytic integration



 =========================================
 Quadrupole Moment (Buckingham convention)  ***  (a.u.)  ***
 =========================================
  
      quad-xx        quad-xy        quad-xz        quad-yy        quad-yz        quad-zz
      2.91191426    -0.00027853     0.02038414    -5.81945097     0.00013597     2.90753671

 This molecular quadrupole moment is calculated with analytic integration
1



 =======================================================
 S F O   P O P U L A T I O N S ,   M O   A N A L Y S I S
 =======================================================
  
 A Mulliken population analysis is performed on (input-)selected MOs. All populations refer to SFOs.
 BAS populations may have been printed directly after the SCF part.


                                       === A ===


 SFO contributions (%) per orbital
 (multiplication by the orbital occupation yields the SFO Gross Populations)

 Orb.:       12     13     14     15     16     17     18     19     20     21     22     23     24     25
 occup:     2.00   2.00   2.00   2.00   2.00   2.00   2.00   2.00   2.00   2.00   0.00   0.00   0.00   0.00
 CF+SFO     ----   ----   ----   ----   ----   ----   ----   ----   ----   ----   ----   ----   ----   ----
 ------
      2:    0.24   4.04  -0.00   0.00   0.03   0.00  -0.03  -0.04   0.00   0.00   0.00   0.00  -0.24   0.00
      3:   -0.08   0.11  -0.00  -0.07  -0.12  -0.00  -0.01  -0.01  -0.00   0.00   0.00   0.00  -2.69  -0.03
      6:    0.01   0.00  14.44   0.35   0.08   0.00   5.24   3.93  -0.00  -0.00  -0.00   0.00   0.00  -1.97
      7:    0.00  -0.00   2.00   0.47   0.20  -0.00   1.73   1.32  -0.00  -0.00   0.00  -0.00  -0.00  -9.04
      9:    0.00   0.00  -0.00   0.00   0.00  17.22   0.00   0.00  12.69  19.08   8.76  25.74   0.00  -0.00
     10:    0.00   0.00  -0.00   0.00   0.00  -0.98   0.00   0.00   0.05   0.07  -0.98  -2.88   0.00  -0.00
     12:   10.70   2.58   0.01   6.44  11.36   0.00   2.59   3.28  -0.00  -0.00   0.00   0.00   0.73   0.02
     21:    0.24   4.01  -0.00   0.04   0.00  -0.00  -0.06  -0.00   0.00  -0.00   0.00  -0.00  -0.24   0.04
     22:   -0.08   0.11  -0.00  -0.18  -0.00  -0.00  -0.02  -0.00   0.00  -0.00   0.00  -0.00  -2.69  -0.54
     25:    7.82   1.99   3.86  13.08  -0.05   0.00   3.06   3.67  -0.00  -0.00  -0.00  -0.00   0.53   0.08
     26:    0.17   0.21   0.53   1.11  -0.01   0.00   0.62   1.27   0.00   0.00  -0.00  -0.00  -0.37 -10.44
     28:   -0.00   0.00   0.00  -0.00   0.00  17.21   0.00  -0.00  30.95   0.81  34.50   0.00   0.00   0.00
     29:   -0.00   0.00  -0.00  -0.00   0.00  -0.98  -0.00  -0.00   0.11   0.00  -3.85  -0.00   0.00   0.00
     31:    2.87   0.73  10.63   4.29   0.72   0.00   2.87   5.41  -0.00   0.00   0.00   0.00   0.19   0.39
     32:    0.06   0.08   1.46   0.14   0.68  -0.00   0.89   1.73   0.00   0.00  -0.00  -0.00  -0.13  -0.57
     40:    0.24   4.04   0.00  -0.00   0.03   0.00  -0.01  -0.06  -0.00   0.00   0.00   0.00  -0.25   0.02
     41:   -0.08   0.11   0.00  -0.03  -0.16   0.00  -0.00  -0.02   0.00   0.00  -0.00   0.00  -2.69  -0.35
     44:    8.20   1.96   3.37   1.20  12.55  -0.00   4.55   2.09  -0.00  -0.00   0.00  -0.00   0.56  -0.45
     45:    0.18   0.22   0.47  -0.29   1.41  -0.00   1.58   0.26  -0.00  -0.00   0.00  -0.00  -0.39 -10.12
     47:   -0.00   0.00   0.00   0.00  -0.00  17.22   0.00  -0.00   4.01  27.76   8.49  26.01   0.00  -0.00
     48:    0.00   0.00   0.00   0.00  -0.00  -0.98   0.00   0.00   0.01   0.10  -0.95  -2.91  -0.00  -0.00
     50:    2.50   0.58  11.09   1.88   2.57  -0.00   4.23   4.16   0.00  -0.00   0.00   0.00   0.17  -0.06
     51:    0.06   0.06   1.54   1.04  -0.24   0.00   1.29   1.40  -0.00   0.00   0.00  -0.00  -0.12  -0.20
     59:    0.24   4.04  -0.00   0.00   0.03   0.00  -0.03  -0.04   0.00   0.00   0.00  -0.00  -0.24   0.00
     60:   -0.08   0.11  -0.00  -0.07  -0.12   0.00  -0.01  -0.01   0.00  -0.00   0.00  -0.00  -2.69  -0.03
     63:    0.01   0.00  14.44   0.35   0.08  -0.00   5.25   3.93   0.00   0.00   0.00   0.00   0.00  -1.97
     64:    0.00  -0.00   2.00   0.47   0.20   0.00   1.73   1.32   0.00   0.00   0.00   0.00  -0.00  -9.04
     66:    0.00  -0.00   0.00  -0.00   0.00  17.22   0.00  -0.00  12.69  19.08   8.76  25.74   0.00   0.00
     67:   -0.00  -0.00   0.00  -0.00   0.00  -0.98  -0.00  -0.00   0.05   0.07  -0.97  -2.88   0.00   0.00
     69:   10.70   2.58   0.01   6.44  11.36  -0.00   2.59   3.28  -0.00  -0.00  -0.00  -0.00   0.73   0.02
     78:    0.24   4.01  -0.00   0.04   0.00  -0.00  -0.06  -0.00   0.00   0.00  -0.00   0.00  -0.24   0.04
     79:   -0.08   0.11  -0.00  -0.18  -0.00  -0.00  -0.02  -0.00   0.00   0.00   0.00   0.00  -2.69  -0.54
     82:    7.82   1.99   3.86  13.09  -0.05   0.00   3.06   3.67   0.00  -0.00   0.00   0.00   0.53   0.08
     83:    0.17   0.21   0.53   1.11  -0.01   0.00   0.62   1.27  -0.00  -0.00  -0.00   0.00  -0.37 -10.44
     85:   -0.00   0.00  -0.00   0.00   0.00  17.21   0.00   0.00  30.95   0.81  34.50   0.00  -0.00  -0.00
     86:    0.00   0.00  -0.00   0.00  -0.00  -0.98  -0.00   0.00   0.11   0.00  -3.85  -0.00   0.00   0.00
     88:    2.87   0.73  10.63   4.29   0.72  -0.00   2.87   5.41   0.00  -0.00  -0.00  -0.00   0.19   0.39
     89:    0.06   0.08   1.46   0.14   0.68   0.00   0.89   1.73   0.00   0.00   0.00  -0.00  -0.13  -0.57
     97:    0.24   4.04   0.00  -0.00   0.03   0.00  -0.01  -0.06  -0.00   0.00   0.00  -0.00  -0.25   0.02
     98:   -0.08   0.11   0.00  -0.03  -0.16   0.00  -0.00  -0.02  -0.00  -0.00  -0.00  -0.00  -2.69  -0.35
    101:    8.20   1.96   3.37   1.20  12.56  -0.00   4.55   2.10  -0.00  -0.00   0.00  -0.00   0.56  -0.45
    102:    0.18   0.22   0.47  -0.29   1.41   0.00   1.58   0.26   0.00  -0.00   0.00   0.00  -0.40 -10.13
    104:    0.00   0.00   0.00  -0.00   0.00  17.22   0.00  -0.00   4.01  27.76   8.49  26.01  -0.00   0.00
    105:    0.00   0.00   0.00  -0.00  -0.00  -0.98  -0.00  -0.00   0.01   0.10  -0.95  -2.91   0.00   0.00
    107:    2.50   0.58  11.10   1.88   2.57   0.00   4.23   4.16  -0.00  -0.00   0.00  -0.00   0.17  -0.06
    108:    0.06   0.06   1.54   1.04  -0.24   0.00   1.29   1.40  -0.00  -0.00   0.00   0.00  -0.12  -0.20
    115:    5.55   9.33   0.00  12.61   0.19  -0.00  12.95   0.39   0.00  -0.00   0.00  -0.00   7.79  19.95
    116:   -0.02   0.16   0.00   0.15   0.00   0.00  -0.19  -0.01  -0.00  -0.00   0.00  -0.00  11.26  29.59
    119:    0.00   0.00   0.00   0.00  -0.00   0.25  -0.00   0.00   0.81   0.02   1.37   0.00   0.00  -0.00
    121:    5.53   9.04   0.00   2.04  11.03   0.00   1.59  11.77   0.00   0.00  -0.00   0.00   7.82  12.11
    122:   -0.02   0.16  -0.00   0.03   0.13   0.00  -0.02  -0.17   0.00  -0.00  -0.00   0.00  11.29  18.05
    125:   -0.00  -0.00   0.00  -0.00   0.00   0.25  -0.00  -0.00   0.10   0.73   0.34   1.03  -0.00   0.00
    127:    5.53   9.09   0.00   4.80   8.21   0.00   5.48   7.88   0.00   0.00  -0.00   0.00   7.81   0.91
    128:   -0.02   0.16  -0.00   0.06   0.10  -0.00  -0.08  -0.12   0.00  -0.00   0.00  -0.00  11.28   1.36
    131:   -0.00  -0.00  -0.00   0.00  -0.00   0.25   0.00  -0.00   0.33   0.50   0.35   1.02   0.00  -0.00
    133:    5.55   9.33   0.00  12.61   0.19  -0.00  12.95   0.39  -0.00   0.00   0.00   0.00   7.79  19.95
    134:   -0.02   0.16   0.00   0.15   0.00   0.00  -0.19  -0.01   0.00  -0.00   0.00   0.00  11.26  29.58
    137:    0.00   0.00   0.00   0.00   0.00   0.25   0.00   0.00   0.81   0.02   1.37   0.00   0.00   0.00
    139:    5.53   9.04   0.00   2.04  11.03   0.00   1.59  11.77   0.00   0.00   0.00   0.00   7.83  12.12
    140:   -0.02   0.16  -0.00   0.03   0.13  -0.00  -0.02  -0.17  -0.00   0.00   0.00   0.00  11.30  18.05
    143:   -0.00   0.00  -0.00   0.00   0.00   0.25   0.00  -0.00   0.10   0.73   0.34   1.03  -0.00  -0.00
    145:    5.53   9.09   0.00   4.80   8.22  -0.00   5.48   7.89   0.00   0.00   0.00   0.00   7.81   0.91
    146:   -0.02   0.16  -0.00   0.06   0.10   0.00  -0.08  -0.12   0.00   0.00   0.00   0.00  11.28   1.36
    149:    0.00  -0.00   0.00  -0.00  -0.00   0.25   0.00  -0.00   0.33   0.50   0.35   1.02   0.00   0.00


 Summation over all MOs, multiplied by occupation: Total SFO Gross Populations in this Irrep
 ===========================================================================================

     2.00    1.07   -0.01   -0.00   -0.00    0.84    0.07   -0.01    0.98   -0.02   -0.00    0.81
     0.03   -0.01    0.02    0.01    0.01    0.02    0.00    2.00    1.07   -0.01   -0.00   -0.00
     0.82    0.04   -0.01    0.98   -0.02   -0.00    0.83    0.06   -0.01    0.02    0.01    0.01
     0.02    0.01    2.00    1.07   -0.01   -0.00   -0.00    0.82    0.04   -0.01    0.98   -0.02
    -0.00    0.83    0.06   -0.01    0.02    0.01    0.01    0.02    0.01    2.00    1.07   -0.01
    -0.00   -0.00    0.84    0.07   -0.01    0.98   -0.02   -0.00    0.81    0.03   -0.01    0.02
     0.01    0.01    0.02    0.00    2.00    1.07   -0.01   -0.00   -0.00    0.82    0.04   -0.01
     0.98   -0.02   -0.00    0.83    0.06   -0.01    0.02    0.01    0.01    0.02    0.01    2.00
     1.07   -0.01   -0.00   -0.00    0.82    0.04   -0.01    0.98   -0.02   -0.00    0.83    0.06
    -0.01    0.02    0.01    0.01    0.02    0.01    1.11   -0.00   -0.00    0.03    0.02    0.02
     1.11   -0.00   -0.00    0.03    0.02    0.02    1.11   -0.00   -0.00    0.02    0.02    0.03
     1.11   -0.00   -0.00    0.03    0.02    0.02    1.11   -0.00   -0.00    0.03    0.02    0.02
     1.11   -0.00   -0.00    0.02    0.02    0.03



 List of all MOs, ordered by energy, with the most significant SFO gross populations
 ===================================================================================

 Each percentage contribution in the table below corresponds to the indicated SFO.
 In general, a SFO may be a linear combination of several Fragment Orbitals on the same,
 or on symmetry-related Fragments. Only the first 'member' of such a combination is
 specified here. A full definition of all SFOs is given in an earlier part of the output.
 The numbering of the SFOs in this table does NOT include the Core Orbitals, and starts
 from one for each symmetry representation, as in the SFO definition list earlier.

       E(eV)  Occ       MO           %     SFO (first member)   E(eV)  Occ   Fragment
 -------------------------------------------------------------------------------------

     -21.394  2.00     7 A         14.60%     2 S             -13.876  2.00     3 C
                                   14.60%     2 S             -13.876  2.00     6 C
                                   14.60%     2 S             -13.876  2.00     4 C
                                   14.60%     2 S             -13.876  2.00     1 C
                                   14.59%     2 S             -13.876  2.00     2 C
                                   14.59%     2 S             -13.876  2.00     5 C
                                    2.37%     1 P:z            -5.403  0.67     4 C
                                    2.37%     1 P:z            -5.403  0.67     1 C
                                    1.82%     1 P:x            -5.403  0.67     6 C
                                    1.82%     1 P:x            -5.403  0.67     3 C
                                    1.74%     1 P:x            -5.403  0.67     5 C
                                    1.74%     1 P:x            -5.403  0.67     2 C
                                    1.24%     1 S              -6.626  1.00     7 H
                                    1.24%     1 S              -6.626  1.00    10 H
                                    1.24%     1 S              -6.626  1.00     8 H
                                    1.23%     1 S              -6.626  1.00    11 H
                                    1.23%     1 S              -6.626  1.00     9 H
                                    1.23%     1 S              -6.626  1.00    12 H
     -18.627  2.00     8 A         22.67%     2 S             -13.876  2.00     5 C
                                   22.67%     2 S             -13.876  2.00     2 C
                                    8.61%     2 S             -13.876  2.00     1 C
                                    8.61%     2 S             -13.876  2.00     4 C
                                    5.57%     1 S              -6.626  1.00    10 H
                                    5.57%     1 S              -6.626  1.00     7 H
                                    4.08%     1 P:z            -5.403  0.67     6 C
                                    4.08%     1 P:z            -5.403  0.67     3 C
                                    3.61%     1 P:x            -5.403  0.67     1 C
                                    3.61%     1 P:x            -5.403  0.67     4 C
                                    3.33%     2 S             -13.876  2.00     6 C
                                    3.33%     2 S             -13.876  2.00     3 C
                                    2.11%     1 S              -6.626  1.00    12 H
                                    2.11%     1 S              -6.626  1.00     9 H
                                   -1.05%     2 P:x             4.709  0.00     4 C
                                   -1.05%     2 P:x             4.709  0.00     1 C
     -18.615  2.00     9 A         19.72%     2 S             -13.876  2.00     3 C
                                   19.72%     2 S             -13.876  2.00     6 C
                                   14.45%     2 S             -13.876  2.00     1 C
                                   14.45%     2 S             -13.876  2.00     4 C
                                    4.88%     1 S              -6.626  1.00     8 H
                                    4.88%     1 S              -6.626  1.00    11 H
                                    4.23%     1 P:z            -5.403  0.67     2 C
                                    4.23%     1 P:z            -5.403  0.67     5 C
                                    3.57%     1 S              -6.626  1.00     9 H
                                    3.57%     1 S              -6.626  1.00    12 H
[...]
 CRIT  6.545572539755565E-002
 iter.  9 V(1) measure  0.8939709943506E+05
        9        delta  0.2871791022335E+00
 CRIT  7.197471003749899E-002
 iter. 10 V(1) measure  0.8939684805599E+05
       10        delta  0.2513790725352E+00
 CRIT  1.776530878865751E-002
 iter. 11 V(1) measure  0.8939688474929E+05
       11        delta  0.3669330864795E-01
 *** convergence reached

    RRIJmat_z_z         
    using first order VWN potential
 
    NOTE: We will NOT use the GGA kernel (input option ALDA was set)
 
 CRIT   1.00000000000000     
 iter.  1 V(1) measure  0.1302380226455E+04
 *** convergence criterion : .1302380E-02
 CRIT   175.513096731927     
 iter.  2 V(1) measure  0.1073483934712E+04
        2        delta  0.2288962917422E+03
 CRIT   63.4526470253755     
 iter.  3 V(1) measure  0.1109105715652E+04
        3        delta  0.3562178093914E+02
 CRIT   18.4358885737956     
 iter.  4 V(1) measure  0.1114676248323E+04
        4        delta  0.5570532671792E+01
 CRIT   4.13293702477892     
 iter.  5 V(1) measure  0.1115574311150E+04
        5        delta  0.8980628270838E+00
 CRIT   1.78792527223671     
 iter.  6 V(1) measure  0.1115674820916E+04
        6        delta  0.1005097651657E+00
 CRIT  0.240240944529172     
 iter.  7 V(1) measure  0.1115672887553E+04
        7        delta  0.1933362543014E-02
 CRIT  4.898170832158112E-002
 iter.  8 V(1) measure  0.1115671208236E+04
        8        delta  0.1679317155549E-02
 CRIT  6.693907124035609E-002
 iter.  9 V(1) measure  0.1115668929415E+04
        9        delta  0.2278820775928E-02
 CRIT  5.014857294756089E-003
 iter. 10 V(1) measure  0.1115669045194E+04
       10        delta  0.1157783624421E-03
 *** convergence reached
 ------------------------------------------
 Convergence acceleration: T
 QUADRUPOLE-QUADRUPOLE POLARIZABILITY     
 Frequency  =  0.1322975682     Hartrees
 Wavelength =   344.4005294     nm
 Wavenumber =   29035.96001     cm^{-1}
 Energy     =   3.600000000     eV
 ------------------------------------------
 QUADRUPOLE-QUADRUPOLE Polarizability tensor:
 
 xx xx     4188.69647658752     
 xx xy    0.134867573828679     
 xx xz     1.49466735863328     
 xx yy    -4991.62604641191     
 xx yz   -5.083255640009288E-002
 xx zz     802.929569824384     
 xy xx    0.135472508575708     
 xy xy     12591.3482815298     
 xy xz   -0.109051406576150     
 xy yy   -4.233796627169228E-002
 xy yz     5.46542407477091     
 xy zz   -9.313454228973179E-002
 xz xx     1.49376048835683     
 xz xy   -0.109088645381573     
 xz xz     1693.79310569810     
 xz yy   -0.584582761270843     
 xz yz    1.728993974937437E-002
 xz zz   -0.909177727095777     
 yy xx    -4991.75484272360     
 yy xy    0.340376147432897     
 yy xz   -0.718531106706382     
 yy yy     9983.78306348823     
 yy yz   -0.171252494308658     
 yy zz    -4992.02822076463     
 yz xx   -5.114139281214491E-002
 yz xy     5.44857931303420     
 yz xz    1.754370252693317E-002
 yz yy    2.190450378548014E-002
 yz yz     12591.1014916791     
 yz zz    2.923688902230326E-002
 zz xx     802.940119763519     
 zz xy   -9.226949925952450E-002
 zz xz   -0.902937556831036     
 zz yy    -4991.98526729888     
 zz yz    2.694419172602291E-002
 zz zz     4189.04514753534     
 
 Imaginary QUADRUPOLE-QUADRUPOLE Polarizability tensor:
 
 xx xx     18.7062159057499     
 xx xy    1.991751980396586E-003
 xx xz    3.269619848637520E-003
 xx yy    -21.5598413678218     
 xx yz   -1.321799562153869E-003
 xx zz     2.85362546207175     
 xy xx    1.191622202999117E-003
 xy xy     124.982567876091     
 xy xz   -1.188660059982463E-003
 xy yy   -6.643400702825051E-004
 xy yz    6.730763860416308E-002
 xy zz   -5.272821323578784E-004
 xz xx    3.418918494545657E-003
 xz xy   -1.269074137707739E-003
 xz xz     7.93307554399146     
 xz yy    3.787509373374402E-004
 xz yz    4.957915777892855E-005
 xz zz   -3.797669431982873E-003
 yy xx    -21.5947567029043     
 yy xy    9.040265850590258E-002
 yy xz   -9.066289405358969E-003
 yy yy     43.1886178987467     
 yy yz   -4.572204161463162E-002
 yy zz    -21.5938611958422     
 yz xx   -8.215898519014116E-004
 yz xy    6.828698071308364E-002
 yz xz    1.047166660959352E-004
 yz yy    3.472357489470203E-004
 yz yz     124.941458501307     
 yz zz    4.743541027661669E-004
 zz xx     2.85224685490196     
 zz xy   -1.747142198353260E-003
 zz xz   -3.720398076968642E-003
 zz yy    -21.5612950069719     
 zz yz    4.448123985256102E-003
 zz zz     18.7090481520701     



 =======================================================================
 Electrostatic potential at the Nuclei due to electrons and other nuclei
 =======================================================================
  
         Atom                  Potential
         ----                  ---------
     1)   C                  14.76889340
     2)   C                  14.76874044
     3)   C                  14.76879861
     4)   C                  14.76889438
     5)   C                  14.76873900
     6)   C                  14.76878608
     7)   H                   1.10086410
     8)   H                   1.10140399
     9)   H                   1.10157675
    10)   H                   1.10086400
    11)   H                   1.10139258
    12)   H                   1.10157707
 
 
 ========================
 No memory problems found
 ========================
 
 Maximum number of active allocate calls:        1279
 
 *******************************************************************************

                             A D F   E X I T
 NORMAL TERMINATION



 =================
 Timing Statistics
 =================
  
 Total Used :                     CPU=       41.57      System=        0.50     Elapsed=       42.92

 Calls  Section                     ( Mean, Percentage )
 ---------------------------------------------------------------------------------------------------
     3  ><      ................      0.00    0.01             0.00    0.00             0.00    0.01
     1  INIT    ................      0.51    1.23             0.00    0.17             0.53    1.24
     1  GEOMET  ................      0.04    0.08             0.01    1.43             0.05    0.11
     1  FRAGM   ................      0.02    0.05             0.01    1.56             0.03    0.08
     1  INPUTA  ................      0.00    0.01             0.00    0.00             0.00    0.01
     1  ATDEN   ................      0.00    0.01             0.00    0.00             0.00    0.01
     1  MAINSY  ................      0.03    0.08             0.00    0.00             0.03    0.08
     1  SYMFIT  ................      0.01    0.02             0.00    0.00             0.01    0.02
     1  CORORT  ................      0.00    0.00             0.00    0.00             0.00    0.00
     1  SYMORB  ................      0.00    0.01             0.00    0.00             0.00    0.01
     1  CLSMAT  ................      0.01    0.03             0.00    0.00             0.01    0.03
     1  ORTHON  ................      0.01    0.03             0.00    0.00             0.01    0.03
     1  GENPT   ................      0.12    0.28             0.00    0.00             0.12    0.28
     1  PTBAS   ................      0.08    0.20             0.00    0.00             0.09    0.21
    13  FOCKY   ................      0.29    8.99             0.00    7.64             0.30    8.94
    13  FOCKTR  ................      0.00    0.09             0.00    0.43             0.00    0.09
    13  SDIIS   ................      0.00    0.15             0.00    0.70             0.01    0.16
     1  COREPS  ................      0.22    0.53             0.00    0.80             0.23    0.53
     1  TOTEN   ................      1.04    2.50             0.02    3.17             1.06    2.46
     1  POPAN   ................      0.00    0.01             0.00    0.77             0.01    0.02
     1  DEBYE   ................      0.02    0.04             0.00    0.01             0.02    0.04
     1  INPUTE  ................      0.00    0.00             0.00    0.00             0.00    0.00
     1  SYMORE  ................      0.00    0.00             0.00    0.00             0.00    0.00
     1  METS    ................      0.00    0.00             0.00    0.09             0.00    0.00
     1  CETS    ................      0.00    0.01             0.01    1.31             0.01    0.03
     1  ELNRGY  ................      0.01    0.02             0.00    0.19             0.01    0.03
     1  POPUL   ................      0.01    0.02             0.00    0.79             0.01    0.03
     1  AORESPONSE .............     35.55   85.52             0.40   80.14            36.70   85.50
     1  EXIT PROCEDURE .........      0.03    0.06             0.00    0.78             0.03    0.07


 Currently Open Files (EXIT00)
 ====================

 Unit    Access Format  Status   Type       Ident (file)
 -------------------------------------------------------
   3      SEQ    FORM   TRANSP  NORMAL      LOGFILE
                                          ( logfile )

 ***************************************************************************************************
 (LOGFILE)
 <Sep29-2020> <15:28:54>  ADF 2019  RunTime: Sep29-2020 15:28:54  Nodes: 1  Procs: 1
 <Sep29-2020> <15:28:54>  Hydrogen (TZP)
 <Sep29-2020> <15:28:54>  RunType   : CREATE
 <Sep29-2020> <15:28:54>  Net Charge: 0 (Nuclei minus Electrons)
 <Sep29-2020> <15:28:54>  Symmetry  : ATOM
  Coordinates
    Atom         X           Y           Z   (Angstrom)
    1.H         0.000000    0.000000    0.000000
 <Sep29-2020> <15:28:54>  >>>> CORORT
 <Sep29-2020> <15:28:54>  >>>> CLSMAT
 <Sep29-2020> <15:28:54>  >>>> ORTHON
 <Sep29-2020> <15:28:54>  >>>> GENPT
 <Sep29-2020> <15:28:54>  Block Length=  64
 <Sep29-2020> <15:28:54>  >>>> PTBAS
 <Sep29-2020> <15:28:54>  >>>> CYCLE
 <Sep29-2020> <15:28:54>              |Error|         MaxErr       Wt(A-DIIS)
 <Sep29-2020> <15:28:54>      1      0.00000000      0.00000000
 <Sep29-2020> <15:28:54>      2      0.03052909      0.02968459
 <Sep29-2020> <15:28:54>      3      0.00718138      0.00670742    100.0
 <Sep29-2020> <15:28:54>      4      0.00117303      0.00114116      0.1
 <Sep29-2020> <15:28:54>      5      0.00002783      0.00002380      0.0
 <Sep29-2020> <15:28:54>      6      0.00000153      0.00000130      0.0
 <Sep29-2020> <15:28:54>      7      0.00000000      0.00000000      0.0
 <Sep29-2020> <15:28:54>  SCF converged
 <Sep29-2020> <15:28:54>      8      0.00000000      0.00000000      0.0
 <Sep29-2020> <15:28:54>  >>>> POPAN
 <Sep29-2020> <15:28:54>  >>>> DEBYE
 <Sep29-2020> <15:28:54>  NORMAL TERMINATION
 <Sep29-2020> <15:28:54>  END
 <Sep29-2020> <15:28:54>  ADF 2019  RunTime: Sep29-2020 15:28:54  Nodes: 1  Procs: 1
 <Sep29-2020> <15:28:55>  Carbon (TZP)
 <Sep29-2020> <15:28:55>  RunType   : CREATE
 <Sep29-2020> <15:28:55>  Net Charge: 0 (Nuclei minus Electrons)
 <Sep29-2020> <15:28:55>  Symmetry  : ATOM
  Coordinates
    Atom         X           Y           Z   (Angstrom)
    1.C         0.000000    0.000000    0.000000
 <Sep29-2020> <15:28:55>  >>>> CORORT
 <Sep29-2020> <15:28:55>  >>>> CLSMAT
 <Sep29-2020> <15:28:55>  >>>> ORTHON
 <Sep29-2020> <15:28:55>  >>>> GENPT
 <Sep29-2020> <15:28:55>  Block Length=  72
 <Sep29-2020> <15:28:55>  >>>> PTBAS
 <Sep29-2020> <15:28:55>  >>>> CYCLE
 <Sep29-2020> <15:28:55>              |Error|         MaxErr       Wt(A-DIIS)
 <Sep29-2020> <15:28:55>      1      0.00000000      0.00000000
 <Sep29-2020> <15:28:55>      2      4.48324754      3.31969244    100.0
 <Sep29-2020> <15:28:55>      3      1.61537707      1.30410194    100.0
 <Sep29-2020> <15:28:55>      4      0.72706284      0.59053131    100.0
 <Sep29-2020> <15:28:55>      5      0.40898688      0.33263800    100.0
 <Sep29-2020> <15:28:55>      6      0.13548919      0.10594416    100.0
 <Sep29-2020> <15:28:55>      7      0.11406432      0.09088019     90.8
 <Sep29-2020> <15:28:55>      8      0.01170325      0.00926551      8.3
 <Sep29-2020> <15:28:55>      9      0.00078015      0.00061791      0.0
 <Sep29-2020> <15:28:55>     10      0.00000178      0.00000107      0.0
 <Sep29-2020> <15:28:55>     11      0.00000024      0.00000019      0.0
 <Sep29-2020> <15:28:55>     12      0.00000000      0.00000000      0.0
 <Sep29-2020> <15:28:55>  SCF converged
 <Sep29-2020> <15:28:55>     13      0.00000000      0.00000000      0.0
 <Sep29-2020> <15:28:55>  >>>> POPAN
 <Sep29-2020> <15:28:55>  >>>> DEBYE
 <Sep29-2020> <15:28:55>  NORMAL TERMINATION
 <Sep29-2020> <15:28:55>  END
 <Sep29-2020> <15:28:55>  ADF 2019  RunTime: Sep29-2020 15:28:55  Nodes: 1  Procs: 6
 <Sep29-2020> <15:28:56>  None
 <Sep29-2020> <15:28:56>  RunType   : SINGLE POINT
 <Sep29-2020> <15:28:56>  Net Charge: 0 (Nuclei minus Electrons)
 <Sep29-2020> <15:28:56>  Symmetry  : NOSYM
 <Sep29-2020> <15:28:56>  >>>> FRAGM
  Coordinates
    Atom         X           Y           Z   (Angstrom)
    1.C         0.028885    4.000000   -1.398589
    2.C        -1.198211    4.000000   -0.726501
    3.C        -1.225473    4.000000    0.672547
    4.C        -0.028885    4.000000    1.398589
    5.C         1.198211    4.000000    0.726501
    6.C         1.225473    4.000000   -0.672547
    7.H        -2.131824    4.000000   -1.291854
    8.H        -2.181376    4.000000    1.199562
    9.H        -0.054211    4.000000    2.490047
   10.H         2.131824    4.000000    1.291854
   11.H         2.181476    4.000000   -1.199562
   12.H         0.054106    4.000000   -2.490047
 <Sep29-2020> <15:28:56>  >>>> CORORT
 <Sep29-2020> <15:28:56>  >>>> CLSMAT
 <Sep29-2020> <15:28:56>  >>>> ORTHON
 <Sep29-2020> <15:28:56>  >>>> GENPT
 <Sep29-2020> <15:28:56>  Block Length= 128
 <Sep29-2020> <15:28:56>  >>>> PTBAS
 <Sep29-2020> <15:28:56>  >>>> CYCLE
 <Sep29-2020> <15:28:57>              |Error|         MaxErr       Wt(A-DIIS)
 <Sep29-2020> <15:28:57>      1      5.99092049      0.98022167
 <Sep29-2020> <15:28:57>      2      0.89232578      0.18709403    100.0
 <Sep29-2020> <15:28:57>      3      0.52145280      0.10260128    100.0
 <Sep29-2020> <15:28:58>      4      0.74325349      0.17264637    100.0
 <Sep29-2020> <15:28:58>      5      0.07622579      0.01072925      9.8
 <Sep29-2020> <15:28:58>      6      0.01072183      0.00173744      0.7
 <Sep29-2020> <15:28:58>      7      0.00130453      0.00032503      0.0
 <Sep29-2020> <15:28:59>      8      0.00087870      0.00021309      0.0
 <Sep29-2020> <15:28:59>      9      0.00007252      0.00001664      0.0
 <Sep29-2020> <15:28:59>     10      0.00000770      0.00000191      0.0
 <Sep29-2020> <15:29:00>     11      0.00000803      0.00000203      0.0
 <Sep29-2020> <15:29:00>     12      0.00000010      0.00000002      0.0
 <Sep29-2020> <15:29:00>  SCF converged
 <Sep29-2020> <15:29:00>     13      0.00000008      0.00000002      0.0
 <Sep29-2020> <15:29:00>  >>>> TOTEN
 <Sep29-2020> <15:29:02>  >>>> POPAN
 <Sep29-2020> <15:29:02>  >>>> DEBYE
 <Sep29-2020> <15:29:02>  >>>> AMETS
 <Sep29-2020> <15:29:02>  >>>> POPUL
 <Sep29-2020> <15:29:02>     1 V(1)  0.1843930E+04
 <Sep29-2020> <15:29:02>     2 V(1)  0.1574173E+04
 <Sep29-2020> <15:29:03>     3 V(1)  0.1556865E+04
 <Sep29-2020> <15:29:03>     4 V(1)  0.1563414E+04
 <Sep29-2020> <15:29:04>     5 V(1)  0.1565158E+04
 <Sep29-2020> <15:29:04>     6 V(1)  0.1565328E+04
 <Sep29-2020> <15:29:04>     7 V(1)  0.1565285E+04
 <Sep29-2020> <15:29:05>     8 V(1)  0.1565197E+04
 <Sep29-2020> <15:29:05>     9 V(1)  0.1565192E+04
 <Sep29-2020> <15:29:06>    10 V(1)  0.1565189E+04
 <Sep29-2020> <15:29:06>    11 V(1)  0.1565188E+04
 <Sep29-2020> <15:29:06>   convergence reached
 <Sep29-2020> <15:29:06>     1 V(1)  0.2536229E+02
 <Sep29-2020> <15:29:07>     2 V(1)  0.2328900E+02
 <Sep29-2020> <15:29:07>     3 V(1)  0.2328366E+02
 <Sep29-2020> <15:29:07>     4 V(1)  0.2328291E+02
 <Sep29-2020> <15:29:08>     5 V(1)  0.2328280E+02
 <Sep29-2020> <15:29:08>     6 V(1)  0.2328282E+02
 <Sep29-2020> <15:29:09>     7 V(1)  0.2328283E+02
 <Sep29-2020> <15:29:09>   convergence reached
 <Sep29-2020> <15:29:09>     1 V(1)  0.1842018E+04
 <Sep29-2020> <15:29:10>     2 V(1)  0.1572440E+04
 <Sep29-2020> <15:29:10>     3 V(1)  0.1555178E+04
 <Sep29-2020> <15:29:10>     4 V(1)  0.1561720E+04
 <Sep29-2020> <15:29:11>     5 V(1)  0.1563611E+04
 <Sep29-2020> <15:29:11>     6 V(1)  0.1563642E+04
 <Sep29-2020> <15:29:12>     7 V(1)  0.1563518E+04
 <Sep29-2020> <15:29:12>     8 V(1)  0.1563498E+04
 <Sep29-2020> <15:29:12>     9 V(1)  0.1563495E+04
 <Sep29-2020> <15:29:13>    10 V(1)  0.1563491E+04
 <Sep29-2020> <15:29:13>    11 V(1)  0.1563491E+04
 <Sep29-2020> <15:29:13>   convergence reached
 <Sep29-2020> <15:29:14>     1 V(1)  0.1302650E+04
 <Sep29-2020> <15:29:14>     2 V(1)  0.1073613E+04
 <Sep29-2020> <15:29:15>     3 V(1)  0.1109247E+04
 <Sep29-2020> <15:29:15>     4 V(1)  0.1114819E+04
 <Sep29-2020> <15:29:15>     5 V(1)  0.1115713E+04
 <Sep29-2020> <15:29:16>     6 V(1)  0.1115811E+04
 <Sep29-2020> <15:29:16>     7 V(1)  0.1115813E+04
 <Sep29-2020> <15:29:17>     8 V(1)  0.1115810E+04
 <Sep29-2020> <15:29:17>     9 V(1)  0.1115808E+04
 <Sep29-2020> <15:29:18>    10 V(1)  0.1115808E+04
 <Sep29-2020> <15:29:18>   convergence reached
 <Sep29-2020> <15:29:18>     1 V(1)  0.1057811E+06
 <Sep29-2020> <15:29:19>     2 V(1)  0.8965652E+05
 <Sep29-2020> <15:29:19>     3 V(1)  0.8876069E+05
 <Sep29-2020> <15:29:20>     4 V(1)  0.8938666E+05
 <Sep29-2020> <15:29:20>     5 V(1)  0.8949424E+05
 <Sep29-2020> <15:29:20>     6 V(1)  0.8950288E+05
 <Sep29-2020> <15:29:21>     7 V(1)  0.8949977E+05
 <Sep29-2020> <15:29:21>     8 V(1)  0.8949437E+05
 <Sep29-2020> <15:29:22>     9 V(1)  0.8949408E+05
 <Sep29-2020> <15:29:22>    10 V(1)  0.8949385E+05
 <Sep29-2020> <15:29:23>    11 V(1)  0.8949380E+05
 <Sep29-2020> <15:29:23>   convergence reached
 <Sep29-2020> <15:29:23>     1 V(1)  0.6151446E+03
 <Sep29-2020> <15:29:23>     2 V(1)  0.4703086E+03
 <Sep29-2020> <15:29:24>     3 V(1)  0.4843523E+03
 <Sep29-2020> <15:29:24>     4 V(1)  0.4855303E+03
 <Sep29-2020> <15:29:25>     5 V(1)  0.4860547E+03
 <Sep29-2020> <15:29:25>     6 V(1)  0.4860625E+03
 <Sep29-2020> <15:29:25>     7 V(1)  0.4860644E+03
 <Sep29-2020> <15:29:26>     8 V(1)  0.4860633E+03
 <Sep29-2020> <15:29:26>     9 V(1)  0.4860625E+03
 <Sep29-2020> <15:29:27>    10 V(1)  0.4860620E+03
 <Sep29-2020> <15:29:27>   convergence reached
 <Sep29-2020> <15:29:27>     1 V(1)  0.2748736E+04
 <Sep29-2020> <15:29:28>     2 V(1)  0.2507395E+04
 <Sep29-2020> <15:29:28>     3 V(1)  0.2520132E+04
 <Sep29-2020> <15:29:28>     4 V(1)  0.2520557E+04
 <Sep29-2020> <15:29:29>     5 V(1)  0.2520557E+04
 <Sep29-2020> <15:29:29>   convergence reached
 <Sep29-2020> <15:29:29>     1 V(1)  0.1056717E+06
 <Sep29-2020> <15:29:30>     2 V(1)  0.8955785E+05
 <Sep29-2020> <15:29:30>     3 V(1)  0.8866460E+05
 <Sep29-2020> <15:29:31>     4 V(1)  0.8928996E+05
 <Sep29-2020> <15:29:31>     5 V(1)  0.8940536E+05
 <Sep29-2020> <15:29:32>     6 V(1)  0.8940654E+05
 <Sep29-2020> <15:29:32>     7 V(1)  0.8939850E+05
 <Sep29-2020> <15:29:32>     8 V(1)  0.8939739E+05
 <Sep29-2020> <15:29:33>     9 V(1)  0.8939710E+05
 <Sep29-2020> <15:29:33>    10 V(1)  0.8939685E+05
 <Sep29-2020> <15:29:34>    11 V(1)  0.8939688E+05
 <Sep29-2020> <15:29:34>   convergence reached
 <Sep29-2020> <15:29:34>     1 V(1)  0.1302380E+04
 <Sep29-2020> <15:29:35>     2 V(1)  0.1073484E+04
 <Sep29-2020> <15:29:35>     3 V(1)  0.1109106E+04
 <Sep29-2020> <15:29:36>     4 V(1)  0.1114676E+04
 <Sep29-2020> <15:29:36>     5 V(1)  0.1115574E+04
 <Sep29-2020> <15:29:36>     6 V(1)  0.1115675E+04
 <Sep29-2020> <15:29:37>     7 V(1)  0.1115673E+04
 <Sep29-2020> <15:29:37>     8 V(1)  0.1115671E+04
 <Sep29-2020> <15:29:38>     9 V(1)  0.1115669E+04
 <Sep29-2020> <15:29:38>    10 V(1)  0.1115669E+04
 <Sep29-2020> <15:29:38>   convergence reached
 <Sep29-2020> <15:29:38>  NORMAL TERMINATION
 <Sep29-2020> <15:29:38>  END
