

 Parallel Execution: Process Information
 ==============================================================================
 Rank   Node Name                              NodeID   MyNodeRank  NodeMaster
    0   magnesium.science.psu.edu                 0          0          0
    1   magnesium.science.psu.edu                 0          1         -1
    2   magnesium.science.psu.edu                 0          2         -1
    3   magnesium.science.psu.edu                 0          3         -1
    4   magnesium.science.psu.edu                 0          4         -1
    5   magnesium.science.psu.edu                 0          5         -1
 ==============================================================================


May use up to 7495MB of RAM as shared memory on node 0
 
TITLE None

ATOMS
1  C     0.02974234    4.00000000   -1.39809727
2  C    -1.19644435    4.00000000   -0.72579215
3  C    -1.22726094    4.00000000    0.67326077
4  C    -0.02965766    4.00000000    1.39910273
5  C     1.19755565    4.00000000    0.72480785
6  C     1.22613906    4.00000000   -0.67413923
7  H    -2.13120071    4.00000000   -1.28917686
8  H    -2.18225859    4.00000000    1.20203318
9  H    -0.05321168    4.00000000    2.49069798
10 H     2.12900458    4.00000000    1.29382314
11 H     2.18404141    4.00000000   -1.19757211
12 H     0.05268832    4.00000000   -2.48950202
END

XC
 gga BP86
end

symmetry nosym

aoresponse
 alda
 frequency 1 3.6 eV
 lifetime 0.0037
 El_Dipole_El_Dipole
 El_Dipole_El_Quadrupole
 El_Quadrupole_El_Quadrupole
 Traceless
end

Fragments
H t21.H
C t21.C
End

 *******************************************************************************
 *                                                                             *
 *  -------------------------------------                                      *
 *   Amsterdam Density Functional  (ADF)         2019                          *
 *  -------------------------------------                                      *
 *                                               r75281 2019-06-03             *
 *                                                                             *
 *                                                                             *
 *                              =================                              *
 *                              |               |                              *
 *                              |     A D F     |                              *
 *                              |               |                              *
 *                              =================                              *
 *                                                                             *
 *                                                                             *
 *   Online information and documentation:  https://www.scm.com/support/       *
 *   E-mail:  support@scm.com   info@scm.com                                   *
 *                                                                             *
 *   Scientific publications using ADF results must be properly referenced     *
 *   See the User Manuals (or the web site) for recommended citations          *
 *   The terms and conditions of the End User License Agreement apply to       *
 *   the use of ADF, https://www.scm.com/license-terms/                        *
 *                                                                             *
 **********************  x86_64_linux_intel / intelmpi  ************************
 
 Licensed to: Prof. Lasse Jensen / Penn State University / University Park / PA  / USA
 SCM User ID: u8493
  
 ADF 2019  RunTime: Sep29-2020 15:21:25  Nodes: 1  Procs: 6

 Temporary files are created in /scratch/kid_0.484647615


Communication costs MPI_COMM_WORLD:      0.561 usec per message,   0.0073 usec per 8-byte item
Communication costs for intra-node:      0.658 usec per message,   0.0074 usec per 8-byte item

 None



 ===========================
 A T T A C H E D   F I L E S
 ===========================
  



 ===============================
 M O D E L   P A R A M E T E R S
 ===============================
  
 DENSITY FUNCTIONAL POTENTIAL (scf)
    LDA:                               VWN                                      
    Gradient Corrections:              Becke88 Perdew86                        == Not Default ==

 SPIN  (restricted / unrestr.)
    Molecule:                          Restricted                               
    Fragments:                         Restricted                               

 OTHER ASPECTS
    Relativistic Corrections:          ---                                      

    Nuclear Charge Density Model:      Point Charge Nuclei                      
    Core Treatment:                    Frozen Orbital(s)                        

    Hyperfine or Zeeman Interaction:   ---                                      


 Fragment File(s)
 ----------------
 C:
         file : t21.C
         jobid: ADF 2019  RunTime: Sep29-2020 15:21:24  Nodes: 1  Procs: 1
         title: Carbon (TZP)
 H:
         file : t21.H
         jobid: ADF 2019  RunTime: Sep29-2020 15:21:23  Nodes: 1  Procs: 1
         title: Hydrogen (TZP)



                                        ************************************
                                        *  R U N   T Y P E : SINGLE POINT  *
                                        ************************************
  



 ===============
 G E O M E T R Y  ***  Planar Molecule  ***
 ===============
  

 ATOMS
 =====                            X Y Z                    CHARGE
                                (Angstrom)             Nucl     +Core       At.Mass
                       --------------------------    ----------------       -------
    1  C               0.0297    4.0000   -1.3981      6.00      6.00       12.0000
    2  C              -1.1964    4.0000   -0.7258      6.00      6.00       12.0000
    3  C              -1.2273    4.0000    0.6733      6.00      6.00       12.0000
    4  C              -0.0297    4.0000    1.3991      6.00      6.00       12.0000
    5  C               1.1976    4.0000    0.7248      6.00      6.00       12.0000
    6  C               1.2261    4.0000   -0.6741      6.00      6.00       12.0000
    7  H              -2.1312    4.0000   -1.2892      1.00      1.00        1.0078
    8  H              -2.1823    4.0000    1.2020      1.00      1.00        1.0078
    9  H              -0.0532    4.0000    2.4907      1.00      1.00        1.0078
   10  H               2.1290    4.0000    1.2938      1.00      1.00        1.0078
   11  H               2.1840    4.0000   -1.1976      1.00      1.00        1.0078
   12  H               0.0527    4.0000   -2.4895      1.00      1.00        1.0078


 FRAGMENTS
 =========                                     Atoms in this Fragment     Cart. coord.s (Angstrom)
                                               -------------------------------------------------------
    1  C                                                 1  C            0.0297    4.0000   -1.3981
    2  C                                                 2  C           -1.1964    4.0000   -0.7258
    3  C                                                 3  C           -1.2273    4.0000    0.6733
    4  C                                                 4  C           -0.0297    4.0000    1.3991
    5  C                                                 5  C            1.1976    4.0000    0.7248
    6  C                                                 6  C            1.2261    4.0000   -0.6741
    7  H                                                 7  H           -2.1312    4.0000   -1.2892
    8  H                                                 8  H           -2.1823    4.0000    1.2020
    9  H                                                 9  H           -0.0532    4.0000    2.4907
   10  H                                                10  H            2.1290    4.0000    1.2938
   11  H                                                11  H            2.1840    4.0000   -1.1976
   12  H                                                12  H            0.0527    4.0000   -2.4895


 Interatomic Distance Matrix (Angstrom)
 --------------------------------------

   1)     0.000
   2)     1.398   0.000
   3)     2.423   1.399   0.000
   4)     2.798   2.424   1.400   0.000
   5)     2.423   2.799   2.425   1.400   0.000
   6)     1.398   2.423   2.799   2.424   1.399   0.000
   7)     2.164   1.091   2.161   3.412   3.891   3.413   0.000
   8)     3.414   2.165   1.092   2.162   3.413   3.891   2.492   0.000
   9)     3.890   3.414   2.164   1.092   2.164   3.414   4.313   2.489   0.000
  10)     3.414   3.891   3.413   2.161   1.092   2.165   4.982   4.312   2.489   0.000
  11)     2.164   3.413   3.891   3.412   2.161   1.092   4.316   4.982   4.314   2.492
          0.000
  12)     1.092   2.161   3.412   3.889   3.412   2.162   2.492   4.315   4.981   4.316
          2.492   0.000

 Min. Distance =    1.0914
 Max. Distance =    4.9822



 =====================================
 S Y M M E T R Y ,   E L E C T R O N S
 =====================================
  
 Symmetry: NOSYM

 Irreducible Representations, including subspecies
 -------------------------------------------------
 A


 Configuration of Valence Electrons
 ==================================
 ( determined in the SCF procedure )

 Total:   42

 Net Charge: 0 (Nuclei minus Electrons)

 Aufbau principle for MO occupations will be applied through SCF cycle no.     150
 Thereafter, the program will assign electrons to MOs that are spatially
 similar to the occupied MOs in a "reference" cycle ("KeepOrbitals").
 The reference cycle is always the PREVIOUS cycle: it will evolve with
 the SCF procedure.
1
 ***************************************************************************************************



                                      ****************************************
                                      *  B U I L D : (Fragments, Functions)  *
                                      ****************************************
  



 =======
 S F O s  ***  (Symmetrized Fragment Orbitals)  ***
 =======
  
 SFOs are linear combinations of (valence) Fragment Orbitals (FOs), such that the SFOs transform as the
 irreducible representations of the (molecular) symmetry group. Each SFO is therefore characterized by
 an irrep of the molecule and by a few (or only one) generating FOs.
 The SFOs constitute a symmetry-adapted basis for the Fock matrix. The MO eigenvector coefficients in
 this basis provide a direct interpretation of the MOs in terms of Frontier Orbital Theory.

 The SFOs are combined with auxiliary Core Functions (CFs) to ensure orthogonalization on the (frozen)
 Core Orbitals (COs). The Core-orthogonalized SFOs (CSFOs) constitute the true Fock basis.

 The FOs, and hence also the (C)SFOs are combinations of the elementary basis functions (BAS). The basis
 functions that participate in the description of the SFOs depend on the irrep. The indices of the
 involved functions are printed below for each irrep.
 (The complete list of primitive basis functions is printed in another section)

 Total nr. of (C)SFOs (summation over all irreps) :   150

 NOTE: a (C)SFO that is defined as a combination of more than one FO is usually NOT normalized.



                                       === A ===
 Nr. of SFOs :  150
 Cartesian basis functions that participate in this irrep (total number =   156) :
      1     2     3     4     5     6     9    12     7    10
     13     8    11    14    15    16    17    18    19    20
     21    22    23    24    25    26    29    32    27    30
     33    28    31    34    35    36    37    38    39    40
     41    42    43    44    45    46    49    52    47    50
     53    48    51    54    55    56    57    58    59    60
     61    62    63    64    65    66    69    72    67    70
     73    68    71    74    75    76    77    78    79    80
     81    82    83    84    85    86    89    92    87    90
     93    88    91    94    95    96    97    98    99   100
    101   102   103   104   105   106   109   112   107   110
    113   108   111   114   115   116   117   118   119   120
    121   122   123   124   125   126   127   128   129   130
    131   132   133   134   135   136   137   138   139   140
    141   142   143   144   145   146   147   148   149   150
    151   152   153   154   155   156

    SFO  (index         Fragment          Generating    Expansion in Fragment Orbitals
  indx  incl.CFs)   Occup   Orb.Energy   FragmentType  Coeff.   Orbital     on Fragment
 --------------------------------------------------------------------------------------
     1       1      2.000     -10.058 au  C             1.00      1 S               1
                        (    -273.681 eV)
     2       2      2.000      -0.510 au  C             1.00      2 S               1
                        (     -13.876 eV)
     3       3       --         0.371 au  C             1.00      3 S               1
                        (      10.091 eV)
     4       4       --         5.428 au  C             1.00      4 S               1
                        (     147.707 eV)
     5       5       --        50.181 au  C             1.00      5 S               1
                        (    1365.486 eV)
     6       6      0.667      -0.199 au  C             1.00      1 P:x             1
                        (      -5.403 eV)
     7       7       --         0.173 au  C             1.00      2 P:x             1
                        (       4.709 eV)
     8       8       --         2.026 au  C             1.00      3 P:x             1
                        (      55.143 eV)
     9       9      0.667      -0.199 au  C             1.00      1 P:y             1
                        (      -5.403 eV)
    10      10       --         0.173 au  C             1.00      2 P:y             1
                        (       4.709 eV)
    11      11       --         2.026 au  C             1.00      3 P:y             1
                        (      55.143 eV)
    12      12      0.667      -0.199 au  C             1.00      1 P:z             1
                        (      -5.403 eV)
    13      13       --         0.173 au  C             1.00      2 P:z             1
                        (       4.709 eV)
    14      14       --         2.026 au  C             1.00      3 P:z             1
                        (      55.143 eV)
    15      15       --         1.232 au  C             1.00      1 D:z2            1
                        (      33.528 eV)
    16      16       --         1.232 au  C             1.00      1 D:x2-y2         1
                        (      33.528 eV)
    17      17       --         1.232 au  C             1.00      1 D:xy            1
                        (      33.528 eV)
    18      18       --         1.232 au  C             1.00      1 D:xz            1
                        (      33.528 eV)
    19      19       --         1.232 au  C             1.00      1 D:yz            1
                        (      33.528 eV)
    20      20      2.000     -10.058 au  C             1.00      1 S               2
                        (    -273.681 eV)
    21      21      2.000      -0.510 au  C             1.00      2 S               2
                        (     -13.876 eV)
    22      22       --         0.371 au  C             1.00      3 S               2
                        (      10.091 eV)
    23      23       --         5.428 au  C             1.00      4 S               2
                        (     147.707 eV)
    24      24       --        50.181 au  C             1.00      5 S               2
                        (    1365.486 eV)
    25      25      0.667      -0.199 au  C             1.00      1 P:x             2
                        (      -5.403 eV)
    26      26       --         0.173 au  C             1.00      2 P:x             2
                        (       4.709 eV)
    27      27       --         2.026 au  C             1.00      3 P:x             2
                        (      55.143 eV)
    28      28      0.667      -0.199 au  C             1.00      1 P:y             2
                        (      -5.403 eV)
    29      29       --         0.173 au  C             1.00      2 P:y             2
                        (       4.709 eV)
    30      30       --         2.026 au  C             1.00      3 P:y             2
                        (      55.143 eV)
    31      31      0.667      -0.199 au  C             1.00      1 P:z             2
                        (      -5.403 eV)
    32      32       --         0.173 au  C             1.00      2 P:z             2
                        (       4.709 eV)
    33      33       --         2.026 au  C             1.00      3 P:z             2
                        (      55.143 eV)
    34      34       --         1.232 au  C             1.00      1 D:z2            2
                        (      33.528 eV)
    35      35       --         1.232 au  C             1.00      1 D:x2-y2         2
                        (      33.528 eV)
    36      36       --         1.232 au  C             1.00      1 D:xy            2
                        (      33.528 eV)
    37      37       --         1.232 au  C             1.00      1 D:xz            2
                        (      33.528 eV)
    38      38       --         1.232 au  C             1.00      1 D:yz            2
                        (      33.528 eV)
    39      39      2.000     -10.058 au  C             1.00      1 S               3
                        (    -273.681 eV)
    40      40      2.000      -0.510 au  C             1.00      2 S               3
                        (     -13.876 eV)
    41      41       --         0.371 au  C             1.00      3 S               3
                        (      10.091 eV)
    42      42       --         5.428 au  C             1.00      4 S               3
                        (     147.707 eV)
    43      43       --        50.181 au  C             1.00      5 S               3
                        (    1365.486 eV)
    44      44      0.667      -0.199 au  C             1.00      1 P:x             3
                        (      -5.403 eV)
    45      45       --         0.173 au  C             1.00      2 P:x             3
                        (       4.709 eV)
    46      46       --         2.026 au  C             1.00      3 P:x             3
                        (      55.143 eV)
    47      47      0.667      -0.199 au  C             1.00      1 P:y             3
                        (      -5.403 eV)
    48      48       --         0.173 au  C             1.00      2 P:y             3
                        (       4.709 eV)
    49      49       --         2.026 au  C             1.00      3 P:y             3
                        (      55.143 eV)
    50      50      0.667      -0.199 au  C             1.00      1 P:z             3
                        (      -5.403 eV)
    51      51       --         0.173 au  C             1.00      2 P:z             3
                        (       4.709 eV)
    52      52       --         2.026 au  C             1.00      3 P:z             3
                        (      55.143 eV)
    53      53       --         1.232 au  C             1.00      1 D:z2            3
                        (      33.528 eV)
    54      54       --         1.232 au  C             1.00      1 D:x2-y2         3
                        (      33.528 eV)
    55      55       --         1.232 au  C             1.00      1 D:xy            3
                        (      33.528 eV)
    56      56       --         1.232 au  C             1.00      1 D:xz            3
                        (      33.528 eV)
    57      57       --         1.232 au  C             1.00      1 D:yz            3
                        (      33.528 eV)
    58      58      2.000     -10.058 au  C             1.00      1 S               4
                        (    -273.681 eV)
    59      59      2.000      -0.510 au  C             1.00      2 S               4
                        (     -13.876 eV)
    60      60       --         0.371 au  C             1.00      3 S               4
                        (      10.091 eV)
    61      61       --         5.428 au  C             1.00      4 S               4
                        (     147.707 eV)
    62      62       --        50.181 au  C             1.00      5 S               4
                        (    1365.486 eV)
    63      63      0.667      -0.199 au  C             1.00      1 P:x             4
                        (      -5.403 eV)
    64      64       --         0.173 au  C             1.00      2 P:x             4
                        (       4.709 eV)
    65      65       --         2.026 au  C             1.00      3 P:x             4
                        (      55.143 eV)
    66      66      0.667      -0.199 au  C             1.00      1 P:y             4
                        (      -5.403 eV)
    67      67       --         0.173 au  C             1.00      2 P:y             4
                        (       4.709 eV)
    68      68       --         2.026 au  C             1.00      3 P:y             4
                        (      55.143 eV)
    69      69      0.667      -0.199 au  C             1.00      1 P:z             4
                        (      -5.403 eV)
    70      70       --         0.173 au  C             1.00      2 P:z             4
                        (       4.709 eV)
    71      71       --         2.026 au  C             1.00      3 P:z             4
                        (      55.143 eV)
    72      72       --         1.232 au  C             1.00      1 D:z2            4
                        (      33.528 eV)
    73      73       --         1.232 au  C             1.00      1 D:x2-y2         4
                        (      33.528 eV)
    74      74       --         1.232 au  C             1.00      1 D:xy            4
                        (      33.528 eV)
    75      75       --         1.232 au  C             1.00      1 D:xz            4
                        (      33.528 eV)
    76      76       --         1.232 au  C             1.00      1 D:yz            4
                        (      33.528 eV)
    77      77      2.000     -10.058 au  C             1.00      1 S               5
                        (    -273.681 eV)
    78      78      2.000      -0.510 au  C             1.00      2 S               5
                        (     -13.876 eV)
    79      79       --         0.371 au  C             1.00      3 S               5
                        (      10.091 eV)
    80      80       --         5.428 au  C             1.00      4 S               5
                        (     147.707 eV)
    81      81       --        50.181 au  C             1.00      5 S               5
                        (    1365.486 eV)
    82      82      0.667      -0.199 au  C             1.00      1 P:x             5
                        (      -5.403 eV)
    83      83       --         0.173 au  C             1.00      2 P:x             5
                        (       4.709 eV)
    84      84       --         2.026 au  C             1.00      3 P:x             5
                        (      55.143 eV)
    85      85      0.667      -0.199 au  C             1.00      1 P:y             5
                        (      -5.403 eV)
    86      86       --         0.173 au  C             1.00      2 P:y             5
                        (       4.709 eV)
    87      87       --         2.026 au  C             1.00      3 P:y             5
                        (      55.143 eV)
    88      88      0.667      -0.199 au  C             1.00      1 P:z             5
                        (      -5.403 eV)
    89      89       --         0.173 au  C             1.00      2 P:z             5
                        (       4.709 eV)
    90      90       --         2.026 au  C             1.00      3 P:z             5
                        (      55.143 eV)
    91      91       --         1.232 au  C             1.00      1 D:z2            5
                        (      33.528 eV)
    92      92       --         1.232 au  C             1.00      1 D:x2-y2         5
                        (      33.528 eV)
    93      93       --         1.232 au  C             1.00      1 D:xy            5
                        (      33.528 eV)
    94      94       --         1.232 au  C             1.00      1 D:xz            5
                        (      33.528 eV)
    95      95       --         1.232 au  C             1.00      1 D:yz            5
                        (      33.528 eV)
    96      96      2.000     -10.058 au  C             1.00      1 S               6
                        (    -273.681 eV)
    97      97      2.000      -0.510 au  C             1.00      2 S               6
                        (     -13.876 eV)
    98      98       --         0.371 au  C             1.00      3 S               6
                        (      10.091 eV)
    99      99       --         5.428 au  C             1.00      4 S               6
                        (     147.707 eV)
   100     100       --        50.181 au  C             1.00      5 S               6
                        (    1365.486 eV)
   101     101      0.667      -0.199 au  C             1.00      1 P:x             6
                        (      -5.403 eV)
   102     102       --         0.173 au  C             1.00      2 P:x             6
                        (       4.709 eV)
   103     103       --         2.026 au  C             1.00      3 P:x             6
                        (      55.143 eV)
   104     104      0.667      -0.199 au  C             1.00      1 P:y             6
                        (      -5.403 eV)
   105     105       --         0.173 au  C             1.00      2 P:y             6
                        (       4.709 eV)
   106     106       --         2.026 au  C             1.00      3 P:y             6
                        (      55.143 eV)
   107     107      0.667      -0.199 au  C             1.00      1 P:z             6
                        (      -5.403 eV)
   108     108       --         0.173 au  C             1.00      2 P:z             6
                        (       4.709 eV)
   109     109       --         2.026 au  C             1.00      3 P:z             6
                        (      55.143 eV)
   110     110       --         1.232 au  C             1.00      1 D:z2            6
                        (      33.528 eV)
   111     111       --         1.232 au  C             1.00      1 D:x2-y2         6
                        (      33.528 eV)
   112     112       --         1.232 au  C             1.00      1 D:xy            6
                        (      33.528 eV)
   113     113       --         1.232 au  C             1.00      1 D:xz            6
                        (      33.528 eV)
   114     114       --         1.232 au  C             1.00      1 D:yz            6
                        (      33.528 eV)
   115     115      1.000      -0.244 au  H             1.00      1 S               7
                        (      -6.626 eV)
   116     116       --         0.093 au  H             1.00      2 S               7
                        (       2.536 eV)
   117     117       --         1.515 au  H             1.00      3 S               7
                        (      41.236 eV)
   118     118       --         0.400 au  H             1.00      1 P:x             7
                        (      10.872 eV)
   119     119       --         0.400 au  H             1.00      1 P:y             7
                        (      10.872 eV)
   120     120       --         0.400 au  H             1.00      1 P:z             7
                        (      10.872 eV)
   121     121      1.000      -0.244 au  H             1.00      1 S               8
                        (      -6.626 eV)
   122     122       --         0.093 au  H             1.00      2 S               8
                        (       2.536 eV)
   123     123       --         1.515 au  H             1.00      3 S               8
                        (      41.236 eV)
   124     124       --         0.400 au  H             1.00      1 P:x             8
                        (      10.872 eV)
   125     125       --         0.400 au  H             1.00      1 P:y             8
                        (      10.872 eV)
   126     126       --         0.400 au  H             1.00      1 P:z             8
                        (      10.872 eV)
   127     127      1.000      -0.244 au  H             1.00      1 S               9
                        (      -6.626 eV)
   128     128       --         0.093 au  H             1.00      2 S               9
                        (       2.536 eV)
   129     129       --         1.515 au  H             1.00      3 S               9
                        (      41.236 eV)
   130     130       --         0.400 au  H             1.00      1 P:x             9
                        (      10.872 eV)
   131     131       --         0.400 au  H             1.00      1 P:y             9
                        (      10.872 eV)
   132     132       --         0.400 au  H             1.00      1 P:z             9
                        (      10.872 eV)
   133     133      1.000      -0.244 au  H             1.00      1 S              10
                        (      -6.626 eV)
   134     134       --         0.093 au  H             1.00      2 S              10
                        (       2.536 eV)
   135     135       --         1.515 au  H             1.00      3 S              10
                        (      41.236 eV)
   136     136       --         0.400 au  H             1.00      1 P:x            10
                        (      10.872 eV)
   137     137       --         0.400 au  H             1.00      1 P:y            10
                        (      10.872 eV)
   138     138       --         0.400 au  H             1.00      1 P:z            10
                        (      10.872 eV)
   139     139      1.000      -0.244 au  H             1.00      1 S              11
                        (      -6.626 eV)
   140     140       --         0.093 au  H             1.00      2 S              11
                        (       2.536 eV)
   141     141       --         1.515 au  H             1.00      3 S              11
                        (      41.236 eV)
   142     142       --         0.400 au  H             1.00      1 P:x            11
                        (      10.872 eV)
   143     143       --         0.400 au  H             1.00      1 P:y            11
                        (      10.872 eV)
   144     144       --         0.400 au  H             1.00      1 P:z            11
                        (      10.872 eV)
   145     145      1.000      -0.244 au  H             1.00      1 S              12
                        (      -6.626 eV)
   146     146       --         0.093 au  H             1.00      2 S              12
                        (       2.536 eV)
   147     147       --         1.515 au  H             1.00      3 S              12
                        (      41.236 eV)
   148     148       --         0.400 au  H             1.00      1 P:x            12
                        (      10.872 eV)
   149     149       --         0.400 au  H             1.00      1 P:y            12
                        (      10.872 eV)
   150     150       --         0.400 au  H             1.00      1 P:z            12
                        (      10.872 eV)



 ================================
 (Slater-type)  F U N C T I O N S  ***  (Basis and Fit)  ***
 ================================
  

 Atom Type    1  (C)
 ==============

 Valence Basis Sets:   9
 -----------------------
   1 S    7.680000
   1 S    5.000000
   2 S    1.280000
   2 S    2.100000
   2 S    4.600000
   2 P    0.820000
   2 P    1.480000
   2 P    2.940000
   3 D    2.200000

 Atom Type    2  (H)
 ==============

 Valence Basis Sets:   4
 -----------------------
   1 S    0.690000
   1 S    0.920000
   1 S    1.580000
   2 P    1.250000


 BAS: List of all Elementary Cartesian Basis Functions
 =====================================================

 The numbering in the list below (to the right of the function characteristics) is referred
 to in print-outs of MO eigenvectors and Mulliken populations in the BAS representation
 (as contrasted to the SFO representation).

 Notes:
 1. The functions are characterized by a polynomial prefactor (powers of x,y,z and r) and
    an exponential decay factor alpha.
 2. Since the basis sets are specific for an atom TYPE, the individual functions occur on
    all atoms of that type.
 3. The word 'Core' in the left margin signals that it is a Core Function (CF) : not a
    degree of freedom in the valence set, but only used to ensure orthogonalization of
    the other valence basis functions on the frozen Core Orbitals.


 (power of) X  Y  Z  R     Alpha  on Atom
            ==========     =====     ==========

 C                                    1    2    3    4    5    6
                                  ---------------------------------------------------------------------------
            0  0  0  0     7.680      1   21   41   61   81  101
            0  0  0  0     5.000      2   22   42   62   82  102
            0  0  0  1     1.280      3   23   43   63   83  103
            0  0  0  1     2.100      4   24   44   64   84  104
            0  0  0  1     4.600      5   25   45   65   85  105
            1  0  0  0     0.820      6   26   46   66   86  106
            0  1  0  0     0.820      7   27   47   67   87  107
            0  0  1  0     0.820      8   28   48   68   88  108
            1  0  0  0     1.480      9   29   49   69   89  109
            0  1  0  0     1.480     10   30   50   70   90  110
            0  0  1  0     1.480     11   31   51   71   91  111
            1  0  0  0     2.940     12   32   52   72   92  112
            0  1  0  0     2.940     13   33   53   73   93  113
            0  0  1  0     2.940     14   34   54   74   94  114
            2  0  0  0     2.200     15   35   55   75   95  115
            1  1  0  0     2.200     16   36   56   76   96  116
            1  0  1  0     2.200     17   37   57   77   97  117
            0  2  0  0     2.200     18   38   58   78   98  118
            0  1  1  0     2.200     19   39   59   79   99  119
            0  0  2  0     2.200     20   40   60   80  100  120

 H                                    7    8    9   10   11   12
                                  ---------------------------------------------------------------------------
            0  0  0  0     0.690    121  127  133  139  145  151
            0  0  0  0     0.920    122  128  134  140  146  152
            0  0  0  0     1.580    123  129  135  141  147  153
            1  0  0  0     1.250    124  130  136  142  148  154
            0  1  0  0     1.250    125  131  137  143  149  155
            0  0  1  0     1.250    126  132  138  144  150  156

 Total number of charge fitting functions (nprimf)       804
 Total number of Cartesian basis functions (naos)        156
 Total number of Cartesian core functions  (ncos)          0

1
 ***************************************************************************************************



                                              ***********************
                                              *  T E C H N I C A L  *
                                              ***********************
  



 =============================================================
 P A R A L L E L I Z A T I O N  and  V E C T O R I Z A T I O N
 =============================================================
  
 Nr of parallel processes:                                6
 Maximum vector length in NumInt loops:                 128



 =====================
 S C F   U P D A T E S
 =====================
  
 Max. nr. of cycles:                               300
 Convergence criterion:                              0.0000010000
   secondary criterion:                              0.0010000000

 Mix parameter (when DIIS does not apply):           0.2000000000
 Mixed ADIIS+SDIIS will be used                  
    Max number of expansion vectors:                10
    Pure ADIIS when Max([F,P]) is above              0.1000000000
    Pure SDIIS when Max([F,P]) is below              0.0010000000
 Automatic ElectronSmearing (in case of problematic SCF convergence) disabled



 =================
 P R E C I S I O N  ***  (General: NumInt, NeglectFunctionTails, ...)  ***
 =================
  

 NumInt:           Target precision:                 4.0000000000
 -------           Initial precision:                4.0000000000
                   Min. precision (optimization):    4.0000000000

 Neglect Functions:          Basis functions:        0.1000000000E-13
 ------------------          Fit functions:          0.1000000000E-13



 ===========================
 L I N E A R   S C A L I N G
 ===========================
  

 Cut-off radii density fit:                        0.1000000000E-07
 Overlap cut-off criterion AO matrix elements:     0.1000000000E-05
 Cut-offs for Coulomb potential and fitted density:0.1000000000E-07
 Cut-off criterion for Coulomb multipole terms:    0.1000000000E-07
 Progressive Convergence parameter:                 0.000000000    
1
 ***************************************************************************************************



                                            ***************************
                                            *  C O M P U T A T I O N  *
                                            ***************************
  

 Number of elements of the density matrix on this node (used, total):      1962     12246



 ===========================================
 Numerical Integration : Fuzzy Cells (Becke)
 ===========================================
  
 Becke grid quality: NORMAL         
  
 Lebedev angular grid order:             min:  11 max:  23
 Nr. of radial points:                   min:  46 max:  52

 Total nr. of points:      75660
 Nr. of blocks:              592
 Block length:               128
 Nr. of dummy points:        116


 Test of Precision of the Numerical Integration Grid
 ===================================================

 Integral of the Total Core Density:                   0.00000000000000



 ========================
 Density Fitting (zlmFit)
 ========================
  
 ZlmFit Fit Quality: NORMAL         
  
 Max L-expansion:                        min:   5 max:   6
 Nr. of radial interpolation points:     min:  36 max:  48



 =====
 S C F  ***  ScaSCF  ***
 =====
  
 Initial density matrix is calculated as sum of fragments

 CYCLE    1
 SCF Error: norm([F,P])=      5.990930226015, max([F,P])=      0.980778917446
 orbitals (Q,E):
 ---------------
 A :12...31          ( 2.00    -0.6583)  ( 2.00    -0.6250)  ( 2.00    -0.5884)  ( 2.00    -0.5691)
                     ( 2.00    -0.5689)  ( 2.00    -0.5031)  ( 2.00    -0.5016)  ( 2.00    -0.5015)
                     ( 2.00    -0.4055)  ( 2.00    -0.4055)  ( 0.00    -0.2151)  ( 0.00    -0.2151)
                     ( 0.00    -0.0768)  ( 0.00    -0.0731)  ( 0.00    -0.0375)  ( 0.00    -0.0375)
                     ( 0.00    -0.0111)  ( 0.00    -0.0111)  ( 0.00     0.0270)  ( 0.00     0.0510)

 CYCLE    2
   MIX coefficients:  0.8000  0.2000
 SCF Error: norm([F,P])=      0.892327642051, max([F,P])=      0.187491611978
 orbitals (Q,E):
 ---------------
 A :12...22          ( 2.00    -0.5946)  ( 2.00    -0.5421)  ( 2.00    -0.5328)  ( 2.00    -0.5022)
                     ( 2.00    -0.5020)  ( 2.00    -0.4366)  ( 2.00    -0.4344)  ( 2.00    -0.4343)
                     ( 2.00    -0.3389)  ( 2.00    -0.3388)  ( 0.00    -0.1501)

 CYCLE    3
  SDIIS (wt  0.000): -1.2669  2.2669
 A-DIIS (wt  1.000):  0.0000  1.0000
  DIIS coefficients:  0.0000  1.0000
 SCF Error: norm([F,P])=      0.521452093315, max([F,P])=      0.102715050473
 orbitals (Q,E):
 ---------------
 A :12...22          ( 2.00    -0.3985)  ( 2.00    -0.3564)  ( 2.00    -0.2966)  ( 2.00    -0.2964)
                     ( 2.00    -0.2951)  ( 2.00    -0.2475)  ( 2.00    -0.2227)  ( 2.00    -0.2227)
                     ( 2.00    -0.1499)  ( 2.00    -0.1498)  ( 0.00     0.0285)

 CYCLE    4
  SDIIS (wt  0.000):  0.1837  0.3521  0.4642
 A-DIIS (wt  1.000):  0.0000  0.6402  0.3598
  DIIS coefficients:  0.0000  0.6402  0.3598
 SCF Error: norm([F,P])=      0.743254250876, max([F,P])=      0.172887197019
 orbitals (Q,E):
 ---------------
 A :12...22          ( 2.00    -0.4673)  ( 2.00    -0.4037)  ( 2.00    -0.3933)  ( 2.00    -0.3709)
                     ( 2.00    -0.3706)  ( 2.00    -0.3293)  ( 2.00    -0.2970)  ( 2.00    -0.2969)
                     ( 2.00    -0.2286)  ( 2.00    -0.2286)  ( 0.00    -0.0404)

 CYCLE    5
  SDIIS (wt  0.901): -0.0173  0.2160  0.0732  0.7280
 A-DIIS (wt  0.099):  0.0000  0.0000  0.0000  1.0000
  DIIS coefficients: -0.0156  0.1946  0.0660  0.7550
 SCF Error: norm([F,P])=      0.076227449093, max([F,P])=      0.010813024704
 orbitals (Q,E):
 ---------------
 A :12...22          ( 2.00    -0.4793)  ( 2.00    -0.4187)  ( 2.00    -0.4084)  ( 2.00    -0.3828)
                     ( 2.00    -0.3825)  ( 2.00    -0.3380)  ( 2.00    -0.3110)  ( 2.00    -0.3109)
                     ( 2.00    -0.2384)  ( 2.00    -0.2383)  ( 0.00    -0.0510)

 CYCLE    6
  SDIIS (wt  0.992): -0.0028  0.0317  0.0084  0.1935  0.7693
 A-DIIS (wt  0.008):  0.0000  0.0000  0.0000  0.0000  1.0000
  DIIS coefficients: -0.0028  0.0314  0.0083  0.1919  0.7712
 SCF Error: norm([F,P])=      0.010803773497, max([F,P])=      0.001814174723
 orbitals (Q,E):
 ---------------
 A :12...22          ( 2.00    -0.4790)  ( 2.00    -0.4180)  ( 2.00    -0.4074)  ( 2.00    -0.3826)
                     ( 2.00    -0.3824)  ( 2.00    -0.3374)  ( 2.00    -0.3104)  ( 2.00    -0.3103)
                     ( 2.00    -0.2377)  ( 2.00    -0.2376)  ( 0.00    -0.0502)

 CYCLE    7
  SDIIS (wt  1.000): -0.0006  0.0130  0.0032  0.0869  0.3688  0.5288
  DIIS coefficients: -0.0006  0.0130  0.0032  0.0869  0.3688  0.5288
 SCF Error: norm([F,P])=      0.002379922936, max([F,P])=      0.000598551068
 orbitals (Q,E):
 ---------------
 A :12...22          ( 2.00    -0.4791)  ( 2.00    -0.4181)  ( 2.00    -0.4075)  ( 2.00    -0.3826)
                     ( 2.00    -0.3824)  ( 2.00    -0.3375)  ( 2.00    -0.3105)  ( 2.00    -0.3104)
                     ( 2.00    -0.2378)  ( 2.00    -0.2377)  ( 0.00    -0.0503)

 CYCLE    8
  SDIIS (wt  1.000):  0.0007  0.0010  0.0001  0.0148  0.0806  0.4560  0.4469
  DIIS coefficients:  0.0007  0.0010  0.0001  0.0148  0.0806  0.4560  0.4469
 SCF Error: norm([F,P])=      0.002028279796, max([F,P])=      0.000494255762
 orbitals (Q,E):
 ---------------
 A :12...22          ( 2.00    -0.4791)  ( 2.00    -0.4181)  ( 2.00    -0.4075)  ( 2.00    -0.3827)
                     ( 2.00    -0.3825)  ( 2.00    -0.3376)  ( 2.00    -0.3105)  ( 2.00    -0.3105)
                     ( 2.00    -0.2379)  ( 2.00    -0.2378)  ( 0.00    -0.0504)

 CYCLE    9
  SDIIS (wt  1.000):  0.0002 -0.0001 -0.0000  0.0013  0.0088  0.0678  0.0805  0.8416
  DIIS coefficients:  0.0002 -0.0001 -0.0000  0.0013  0.0088  0.0678  0.0805  0.8416
 SCF Error: norm([F,P])=      0.000084345652, max([F,P])=      0.000021348169
 orbitals (Q,E):
 ---------------
 A :12...22          ( 2.00    -0.4791)  ( 2.00    -0.4181)  ( 2.00    -0.4076)  ( 2.00    -0.3827)
                     ( 2.00    -0.3825)  ( 2.00    -0.3376)  ( 2.00    -0.3105)  ( 2.00    -0.3105)
                     ( 2.00    -0.2379)  ( 2.00    -0.2378)  ( 0.00    -0.0504)

 CYCLE   10
  SDIIS (wt  1.000):  0.0001 -0.0001 -0.0000 -0.0003 -0.0006  0.0070  0.0164  0.5841  0.3936
  DIIS coefficients:  0.0001 -0.0001 -0.0000 -0.0003 -0.0006  0.0070  0.0164  0.5841  0.3936
 SCF Error: norm([F,P])=      0.000103422231, max([F,P])=      0.000026008815
 orbitals (Q,E):
 ---------------
 A :12...22          ( 2.00    -0.4791)  ( 2.00    -0.4181)  ( 2.00    -0.4076)  ( 2.00    -0.3827)
                     ( 2.00    -0.3825)  ( 2.00    -0.3376)  ( 2.00    -0.3105)  ( 2.00    -0.3105)
                     ( 2.00    -0.2379)  ( 2.00    -0.2378)  ( 0.00    -0.0504)

 CYCLE   11
  SDIIS (wt  1.000):  0.0000 -0.0000 -0.0000  0.0000 -0.0000 -0.0001 -0.0002 -0.0037  0.0028  1.0012
  DIIS coefficients:  0.0000 -0.0000 -0.0000  0.0000 -0.0000 -0.0001 -0.0002 -0.0037  0.0028  1.0012
 SCF Error: norm([F,P])=      0.000001321094, max([F,P])=      0.000000356408
 orbitals (Q,E):
 ---------------
 A :12...22          ( 2.00    -0.4791)  ( 2.00    -0.4181)  ( 2.00    -0.4076)  ( 2.00    -0.3827)
                     ( 2.00    -0.3825)  ( 2.00    -0.3376)  ( 2.00    -0.3105)  ( 2.00    -0.3105)
                     ( 2.00    -0.2379)  ( 2.00    -0.2378)  ( 0.00    -0.0504)

 SCF CONVERGED

 CYCLE   12
1
 ***************************************************************************************************



                                                *******************
                                                *  R E S U L T S  *
                                                *******************
  
 *** Using FIT density in Focky
  SDIIS (wt  1.000): -0.0000 -0.0000  0.0000 -0.0000 -0.0001 -0.0003 -0.0073 -0.0018  0.5745  0.4350
  DIIS coefficients: -0.0000 -0.0000  0.0000 -0.0000 -0.0001 -0.0003 -0.0073 -0.0018  0.5745  0.4350
 SCF Error: norm([F,P])=      0.000000415087, max([F,P])=      0.000000103467

 Orbital Energies, per Irrep and Spin:
 ======================================
                        Occup              E (au)              E (eV)       Diff (eV) with prev. cycle
                        -----      --------------------        ------       --------------------------
 A
              12        2.000     -0.47913289264517E+00       -13.038               6.63E-08
              13        2.000     -0.41810954669465E+00       -11.377               9.39E-08
              14        2.000     -0.40755384183350E+00       -11.090               6.81E-08
              15        2.000     -0.38269170341002E+00       -10.414               5.88E-08
              16        2.000     -0.38246854922075E+00       -10.407               6.37E-08
              17        2.000     -0.33758051099014E+00        -9.186               3.20E-08
              18        2.000     -0.31053602700234E+00        -8.450               7.46E-08
              19        2.000     -0.31046212283140E+00        -8.448               7.56E-08
              20        2.000     -0.23788083981409E+00        -6.473               3.27E-08
              21        2.000     -0.23782156760652E+00        -6.471               4.29E-08
              22        0.000     -0.50384398395763E-01        -1.371
              23        0.000     -0.50334686750941E-01        -1.370
              24        0.000      0.20339480051939E-02         0.055
              25        0.000      0.27837837350817E-01         0.758
              26        0.000      0.27862263988946E-01         0.758
              27        0.000      0.60711811218919E-01         1.652
              28        0.000      0.60761844031511E-01         1.653
              29        0.000      0.90659406094122E-01         2.467
              30        0.000      0.96118276208367E-01         2.616
              31        0.000      0.14212242209255E+00         3.867
  
 HOMO :       21 A                -0.23782156760652E+00
 LUMO :       22 A                -0.50384398395763E-01
  


 All Electron Calculation, thus no Orbital Energies of the Core Orbitals are calculated


 Fit test: (difference of exact and fit density, squared integrated, result summed over spins)
         Sum-of-Fragments:                             0.00000000048365
         Orthogonalized Fragments:                     0.00013298917111
         SCF:                                          0.00048707587201



 ==========================
 Electron Density at Nuclei
 ==========================
  
 The electron density is calculated at points on a small sphere around the center of a nucleus.
 The printed electron density is the average electron density on these points.
 The radius of the sphere is the printed approximate finite nuclear radius.

         Atom        Nuclear Radius (Angstrom)             Electron Density (a.u.)
         ----        -------------------------             -----------------------
     1)   C                 0.0000320678                              126.51437
     2)   C                 0.0000320678                              126.51569
     3)   C                 0.0000320678                              126.51470
     4)   C                 0.0000320678                              126.51447
     5)   C                 0.0000320678                              126.51571
     6)   C                 0.0000320678                              126.51456
     7)   H                 0.0000181514                                0.49878
     8)   H                 0.0000181514                                0.49864
     9)   H                 0.0000181514                                0.49856
    10)   H                 0.0000181514                                0.49870
    11)   H                 0.0000181514                                0.49868
    12)   H                 0.0000181514                                0.49873



 =======================================
 M U L L I K E N   P O P U L A T I O N S
 =======================================
  
 The survey below gives for each atom:
 a) the total charge (Z minus electrons)
 b) the net spin polarization (nr of electrons spin-A minus spin-B)
 c) for each spin the atomic electron valence density (integrated) per L-value.

 Atom              Charge    Spin density          S         P         D         F
 ----              ------    ------------       ------    ------    ------    ------
 1 C               0.1752                       3.0642    2.6995    0.0611    0.0000
 2 C               0.1756                       3.0646    2.6987    0.0610    0.0000
 3 C               0.1756                       3.0654    2.6981    0.0609    0.0000
 4 C               0.1755                       3.0657    2.6979    0.0608    0.0000
 5 C               0.1758                       3.0653    2.6980    0.0609    0.0000
 6 C               0.1754                       3.0646    2.6990    0.0610    0.0000
 7 H              -0.1759                       1.1045    0.0714    0.0000    0.0000
 8 H              -0.1756                       1.1042    0.0714    0.0000    0.0000
 9 H              -0.1750                       1.1036    0.0714    0.0000    0.0000
 10 H             -0.1759                       1.1044    0.0715    0.0000    0.0000
 11 H             -0.1757                       1.1043    0.0714    0.0000    0.0000
 12 H             -0.1751                       1.1037    0.0714    0.0000    0.0000

 Populations of individual BAS functions
 ----------------------------------------
 1 C            0.4870  1.5144  0.2290  0.8873 -0.0535 -0.1028  0.1470 -0.2382  0.8054  0.6785
                0.8826  0.2003  0.1367  0.1899  0.0269  0.0122  0.0174 -0.0175  0.0040  0.0180
 2 C            0.4870  1.5144  0.2294  0.8874 -0.0535 -0.2037  0.1471 -0.1383  0.8628  0.6783
                0.8259  0.1927  0.1367  0.1973  0.0182  0.0062  0.0220 -0.0176  0.0100  0.0221
 3 C            0.4869  1.5145  0.2302  0.8873 -0.0535 -0.2061  0.1476 -0.1356  0.8641  0.6778
                0.8240  0.1921  0.1366  0.1977  0.0178  0.0059  0.0216 -0.0175  0.0103  0.0227
 4 C            0.4869  1.5145  0.2306  0.8872 -0.0535 -0.1038  0.1479 -0.2374  0.8054  0.6775
                0.8820  0.1999  0.1365  0.1898  0.0267  0.0121  0.0174 -0.0175  0.0040  0.0181
 5 C            0.4870  1.5144  0.2301  0.8873 -0.0535 -0.2012  0.1474 -0.1408  0.8614  0.6779
                0.8270  0.1925  0.1366  0.1973  0.0180  0.0062  0.0221 -0.0175  0.0100  0.0222
 6 C            0.4870  1.5144  0.2294  0.8873 -0.0535 -0.2083  0.1471 -0.1332  0.8654  0.6783
                0.8230  0.1923  0.1367  0.1977  0.0181  0.0059  0.0216 -0.0175  0.0103  0.0227
 7 H            0.2098  0.5758  0.3188  0.0289  0.0217  0.0208
 8 H            0.2093  0.5762  0.3188  0.0294  0.0217  0.0203
 9 H            0.2084  0.5764  0.3189  0.0162  0.0217  0.0334
 10 H           0.2097  0.5760  0.3188  0.0288  0.0217  0.0209
 11 H           0.2094  0.5761  0.3188  0.0295  0.0217  0.0202
 12 H           0.2087  0.5761  0.3190  0.0162  0.0217  0.0334

 Gross Charges per Atom (Z minus electrons)
 ==========================================
             0.1752    0.1756    0.1756    0.1755    0.1758    0.1754   -0.1759   -0.1756   -0.1750   -0.1759
            -0.1757   -0.1751
 Net Total: -0.00000000


 Atom-Atom Population Matrix (off-diagonal elements not doubled)
 ===============================================================

     1 :     4.5218
     2 :     0.5422    4.5218
     3 :    -0.0104    0.5417    4.5230
     4 :    -0.0557   -0.0109    0.5413    4.5240
     5 :    -0.0102   -0.0555   -0.0113    0.5413    4.5227
     6 :     0.5424   -0.0101   -0.0555   -0.0109    0.5418    4.5218
     7 :    -0.0537    0.3939   -0.0536    0.0023    0.0041    0.0020    0.9823
     8 :     0.0021   -0.0534    0.3939   -0.0536    0.0023    0.0041   -0.0476    0.9817
     9 :     0.0041    0.0022   -0.0533    0.3939   -0.0532    0.0022   -0.0038   -0.0477    0.9806
    10 :     0.0021    0.0041    0.0023   -0.0536    0.3939   -0.0535    0.0015   -0.0038   -0.0477    0.9821
    11 :    -0.0537    0.0020    0.0041    0.0023   -0.0536    0.3939   -0.0039    0.0015   -0.0038   -0.0476
             0.9819
    12 :     0.3939   -0.0535    0.0021    0.0041    0.0020   -0.0535   -0.0475   -0.0039    0.0016   -0.0039
            -0.0474    0.9810



 =================================================
 H I R S H F E L D   C H A R G E   A N A L Y S I S
 =================================================
  
 For each fragment: the (numerical) integral of rho(scf) * rho(fragment)/rho(sum-of-fragments)
 (nuclear charges are included, electrons are counted negative)

 The fragments and their ordering are defined in the early G E O M E T R Y output section.
 If you use single-atom fragments, this usually implies that all atoms of the same
 chemical type are grouped together. This may not be the order in which you listed them
 in the input file!

    1  C                        -0.0462
    2  C                        -0.0463
    3  C                        -0.0463
    4  C                        -0.0463
    5  C                        -0.0463
    6  C                        -0.0463
    7  H                         0.0464
    8  H                         0.0463
    9  H                         0.0462
   10  H                         0.0463
   11  H                         0.0463
   12  H                         0.0463

 Sum of these charges (accuracy NumInt/Tails) =          -0.00005969



 =============================
 V O R O N O I   C H A R G E S
 =============================
  
 For each atom: the (numerical) integral of the total electronic charge density in its Voronoi cell,
 i.e. the region of space that is closer to that atom than to any other atom.
 (cf. Wigner-Seitz cells in crystals)

 Within the Voronoi cell the subintegrals over the atomic sphere and the remaining part are evaluated
 separately to give the numbers of electrons (negative charge) in these regions.
 The net total charge in the cell (including the nuclear charge) is also given.

 Values are provided for
    a) the Initial (sum-of-fragments) density
    b) the Orthogonalized-Fragments density
    c) the SCF density
    d) the Voronoi Deformation Density (VDD): the difference SCF-Initial for the complete atomic cell


  Atom                Initial                    OrthFrag                   SCF
             Sphere RestCell NetTotal   Sphere RestCell NetTotal   Sphere RestCell NetTotal      VDD
 -----       ------------------------   ------------------------   ------------------------    -----
    1 C      -2.269   -3.184    0.547   -2.452   -3.136    0.412   -2.303   -3.205    0.492   -0.055
    2 C      -2.269   -3.191    0.540   -2.452   -3.138    0.410   -2.303   -3.208    0.489   -0.051
    3 C      -2.269   -3.186    0.545   -2.452   -3.140    0.408   -2.303   -3.209    0.488   -0.057
    4 C      -2.268   -3.186    0.545   -2.452   -3.138    0.410   -2.303   -3.207    0.490   -0.056
    5 C      -2.268   -3.193    0.539   -2.452   -3.139    0.409   -2.303   -3.209    0.488   -0.051
    6 C      -2.269   -3.183    0.548   -2.452   -3.137    0.411   -2.303   -3.206    0.491   -0.057
    7 H      -0.075   -1.475   -0.549   -0.096   -1.318   -0.414   -0.109   -1.385   -0.494    0.056
    8 H      -0.075   -1.468   -0.542   -0.096   -1.312   -0.407   -0.109   -1.378   -0.487    0.056
    9 H      -0.075   -1.465   -0.540   -0.096   -1.312   -0.408   -0.109   -1.379   -0.487    0.053
   10 H      -0.075   -1.471   -0.545   -0.096   -1.316   -0.412   -0.109   -1.382   -0.491    0.054
   11 H      -0.075   -1.470   -0.545   -0.096   -1.314   -0.410   -0.109   -1.380   -0.489    0.056
   12 H      -0.075   -1.469   -0.543   -0.096   -1.314   -0.410   -0.109   -1.381   -0.490    0.054
 ---------------------------------------------------------------------------------------------------
 Total NetCharge:              -0.000                     -0.000                     -0.000    0.000
 (accuracy NumInt/Tails)

 Remark: the 'NetTotal' Voronoi charges often do not match the Mulliken and/or Hirshfeld charges very
 well. This is caused by the fact that chemically different atoms are not treated in accordance with
 their relative sizes. (Voronoi cells are defined by boundary planes halfway between the atoms.)
 However, the CHANGES in charge, comparing 'Initial' to 'SCF' for instance, do give a fair indication
 of the flow of charge caused by the relaxation from sum-of-fragments to self-consistency.

 Warning: the absolute accuracy of the VDD charges obtained using the Fuzzy Cells (Becke) integration
 scheme is much poorer than the one obtained with an 'equivalent' Voronoi integration grid. 



 =================================================================
 M U L T I P O L E   D E R I V E D   C H A R G E   A N A L Y S I S
 =================================================================

 This charge analysis uses the atomic multipoles (obtained from the fitted density) up to some level X,
 and reconstructs these multipoles exactly (up to level X) by distributing charges over all atoms.
 This is achieved by using Lagrange multipliers and a weight function to keep the multipoles local.

 Dummy atoms can be included (by setting INCDUM in MDC-block to 1) to obtain a fractional charge.
 This is generally useful and necessary only for small symmetrical molecules, when there are not
 enough degrees of freedom to reconstruct the multipoles.

 Since the atomic multipoles are reconstructed up to level X,
 the molecular multipoles are represented also up to level X.
 The recommended level is to reconstruct up to quadrupole : -> MDC-q charges.

 See: M. Swart, P.Th. van Duijnen, J.G. Snijders, J.Comput.Chem., (2001), p. 79-88.

 ------------------------------------------------------------- 
 Atomic electronic multipole moments from SCF equations (a.u.)
 ------------------------------------------------------------- 

   atom        charge        dip-x     dip-y     dip-z      quad-xx   quad-xy   quad-xz   quad-yy   quad-yz   quad-zz
 --------------------------------------------------------------------------------------------------------------------
    1 C      0.061055     0.000962  0.000000 -0.046750     0.469088 -0.000000 -0.000594 -0.996000 -0.000000  0.526912
    2 C      0.060535    -0.042014  0.000000 -0.025381     0.510737 -0.000000  0.013964 -0.993542 -0.000000  0.482805
    3 C      0.060489    -0.042573  0.000000  0.023655     0.510667 -0.000000 -0.016018 -0.995250 -0.000000  0.484583
    4 C      0.060674    -0.001025  0.000000  0.047509     0.468727 -0.000000 -0.000936 -0.997264  0.000000  0.528536
    5 C      0.060375     0.042116 -0.000000  0.025839     0.506749 -0.000000  0.015825 -0.994123  0.000000  0.487374
    6 C      0.060688     0.042329  0.000000 -0.023152     0.513971 -0.000000 -0.013962 -0.994508 -0.000000  0.480537
    7 H     -0.060625    -0.019716  0.000000 -0.011367     0.161155  0.000000  0.080214 -0.195288 -0.000000  0.034133
    8 H     -0.060614    -0.019612  0.000000  0.011430     0.169912 -0.000000 -0.076932 -0.195782  0.000000  0.025871
    9 H     -0.060666    -0.000541  0.000000  0.022681    -0.038412  0.000000 -0.003928 -0.195102 -0.000000  0.233514
   10 H     -0.060624     0.019189  0.000000  0.012353     0.159441 -0.000000  0.080808 -0.195454  0.000000  0.036013
   11 H     -0.060609     0.020065  0.000000 -0.010492     0.171399  0.000000 -0.076297 -0.195557  0.000000  0.024159
   12 H     -0.060678     0.000436  0.000000 -0.022575    -0.038718  0.000000 -0.003808 -0.194683  0.000000  0.233401

 --------------------------------------- 
 Multipole derived atomic charges (a.u.)
 --------------------------------------- 

 The MDC-m charges are just the Monopole terms in the multipole expansion, while for the MDC-d charges
 also the Dipoles are reconstructed. The usually preferred charges are the MDC-q charges.
 These reconstruct the Monopoles, Dipoles and Quadrupoles (both atomic AND molecular).

        Atom    Level:     MDC-m        MDC-d        MDC-q
 ---------------------------------------------------------
     1     C            0.061055     0.035059    -0.125220
     2     C            0.060535     0.034557    -0.127716
     3     C            0.060489     0.034577    -0.128265
     4     C            0.060674     0.034792    -0.126747
     5     C            0.060375     0.034440    -0.128388
     6     C            0.060688     0.034714    -0.127396
     7     H           -0.060625    -0.034447     0.127640
     8     H           -0.060614    -0.034519     0.127565
     9     H           -0.060666    -0.034879     0.127086
    10     H           -0.060624    -0.034273     0.127776
    11     H           -0.060609    -0.034742     0.127339
    12     H           -0.060678    -0.035278     0.126328

 ------------------------------------------------ 
 Average absolute deviations in atomic multipoles
 ------------------------------------------------ 

 Stated here are the average differences between the atomic multipoles
 and the reconstructed atomic multipoles (from the distributed charges).
 If these values are not zero, this means there are not enough degrees of freedom,
 to be able to reconstruct the atomic multipoles. (This usually happens only
 for small and/or highly symmetric molecules). If this is the case, one could add
 dummy atoms as extra point charges (and setting INCDUM in MDC-block to 1).

 Level:                                 MDC-d        MDC-q
 ---------------------------------------------------------
 Charge   (a.u.)                       0.0000       0.0000
 Dipole   (Debye)                      0.0000       0.0000
 Quad.    (a.u.)                       0.2134       0.0000

 --------------------------------------- 
 Represented molecular multipole moments
 --------------------------------------- 

 Given here are the Molecular multipole moments from the atomic charges, and from the Fit Density.
 Note that the atomic charges represent the latter, NOT the ones from the Exact density.

            Q (a.u.)             Dipole moment (Debye)                                          Quadrupole moment (a.u.)
                                 x         y         z              xx        xy        xz        yy        yz        zz
------------------------------------------------------------------------------------------------------------------------
MDC-m        -0.0000        0.0007   -0.0000   -0.0069         -1.3797    0.0029   -0.0014    2.7586   -0.0308   -1.3790
MDC-d        -0.0000       -0.0003   -0.0000    0.0026         -0.7730   -0.0014    0.0072    1.5782    0.0118   -0.8053
MDC-q        -0.0000       -0.0003   -0.0000    0.0026          2.9008   -0.0014    0.0052   -5.7910    0.0118    2.8902
 
Fit.Dens.    -0.0000       -0.0003    0.0000    0.0026          2.9008   -0.0014    0.0043   -5.7910    0.0118    2.8902



 =============
 Dipole Moment  ***  (Debye)  ***
 =============
  
 Vector   :        -0.00029490     -0.00000008      0.00260301
 Magnitude:         0.00261966

 This molecular dipole moment is calculated with analytic integration



 =========================================
 Quadrupole Moment (Buckingham convention)  ***  (a.u.)  ***
 =========================================
  
      quad-xx        quad-xy        quad-xz        quad-yy        quad-yz        quad-zz
      2.91221296    -0.00131528     0.00258195    -5.81936419     0.01161153     2.90715123

 This molecular quadrupole moment is calculated with analytic integration
1



 =======================================================
 S F O   P O P U L A T I O N S ,   M O   A N A L Y S I S
 =======================================================
  
 A Mulliken population analysis is performed on (input-)selected MOs. All populations refer to SFOs.
 BAS populations may have been printed directly after the SCF part.


                                       === A ===


 SFO contributions (%) per orbital
 (multiplication by the orbital occupation yields the SFO Gross Populations)

 Orb.:       12     13     14     15     16     17     18     19     20     21     22     23     24     25
 occup:     2.00   2.00   2.00   2.00   2.00   2.00   2.00   2.00   2.00   2.00   0.00   0.00   0.00   0.00
 CF+SFO     ----   ----   ----   ----   ----   ----   ----   ----   ----   ----   ----   ----   ----   ----
 ------
      2:    0.24   4.01   0.00   0.00   0.02  -0.00  -0.00  -0.06   0.00   0.00   0.00   0.00  -0.25   0.01
      3:   -0.08   0.11  -0.00  -0.00  -0.18   0.00  -0.00  -0.02   0.00   0.00   0.00  -0.00  -2.68  -0.10
      6:    0.01   0.00  14.57   0.44  -0.00  -0.00   8.84   0.18   0.00  -0.00   0.00  -0.00   0.00  -1.75
      7:    0.00   0.00   2.03   0.65   0.00   0.00   2.96   0.06   0.00  -0.00  -0.00  -0.00  -0.00  -8.15
      9:   -0.00  -0.00  -0.00   0.00  -0.00  17.33  -0.00   0.00   0.27  31.39   0.43  33.97   0.00   0.00
     10:   -0.00   0.00  -0.00   0.00   0.00  -0.98  -0.00  -0.00   0.00   0.12  -0.05  -3.80   0.00  -0.00
     12:   10.75   2.55   0.01   0.31  17.48   0.00   0.13   5.72   0.00   0.00   0.00  -0.00   0.73   0.14
     13:    0.23   0.28   0.00   0.01   1.25   0.00   0.04   1.42   0.00   0.00   0.00  -0.00  -0.51  -1.65
     17:    0.00   0.00   0.00  -0.00   0.00   0.00   0.00  -0.00   0.61   0.00   1.13   0.02  -0.00  -0.00
     21:    0.24   4.01  -0.00   0.02   0.01   0.00  -0.05  -0.01  -0.00  -0.00  -0.00  -0.00  -0.24   0.01
     22:   -0.08   0.11   0.00  -0.16  -0.03   0.00  -0.02  -0.00   0.00  -0.00   0.00  -0.00  -2.68  -0.21
     25:    7.83   1.94   3.92  10.12   2.92   0.00   6.38   0.26  -0.00  -0.00   0.00   0.00   0.53  -0.74
     26:    0.17   0.22   0.56   0.24   0.86  -0.00   1.98  -0.09  -0.00  -0.00   0.00  -0.00  -0.37  -9.02
     28:    0.00   0.00   0.00  -0.00   0.00  17.27   0.00   0.00  26.21   5.51  22.33  12.13   0.00   0.00
     29:    0.00   0.00   0.00  -0.00  -0.00  -0.98   0.00  -0.00   0.10   0.02  -2.50  -1.35   0.00  -0.00
     31:    2.89   0.70  10.61   5.15  -0.07  -0.00  -0.11   8.41   0.00   0.00  -0.00   0.00   0.20  -0.36
     32:    0.06   0.07   1.46   0.92  -0.10  -0.00  -0.27   2.90  -0.00   0.00  -0.00   0.00  -0.14  -1.08
     40:    0.24   4.05   0.00   0.02   0.02   0.00  -0.04  -0.02   0.00   0.00   0.00   0.00  -0.24   0.04
     41:   -0.08   0.11   0.00  -0.11  -0.07   0.00  -0.01  -0.01   0.00   0.00   0.00  -0.00  -2.70  -0.61
     44:    8.19   2.02   3.30   7.24   6.51   0.00   6.89  -0.16  -0.00  -0.00  -0.00  -0.00   0.56   0.44
     45:    0.18   0.22   0.44  -0.09   1.21  -0.00   2.20  -0.35  -0.00   0.00  -0.00  -0.00  -0.39  -9.36
     47:   -0.00  -0.00  -0.00   0.00  -0.00  17.16   0.00   0.00  21.16  10.66  29.01   5.54  -0.00   0.00
     48:   -0.00   0.00  -0.00   0.00   0.00  -0.98  -0.00   0.00   0.08   0.04  -3.24  -0.62  -0.00  -0.00
     50:    2.48   0.61  11.10   3.99   0.41   0.00   0.29   8.11  -0.00   0.00  -0.00  -0.00   0.17   0.27
     51:    0.06   0.07   1.54   1.14  -0.33  -0.00  -0.14   2.84  -0.00   0.00  -0.00   0.00  -0.12  -1.70
     59:    0.24   4.07   0.00   0.00   0.03  -0.00  -0.00  -0.06   0.00  -0.00   0.00   0.00  -0.24   0.01
     60:   -0.08   0.11   0.00  -0.00  -0.18   0.00  -0.00  -0.02  -0.00  -0.00   0.00   0.00  -2.70  -0.10
     63:    0.01   0.00  14.31   0.43  -0.00  -0.00   9.16   0.18   0.00   0.00   0.00  -0.00   0.00  -1.75
     64:    0.00   0.00   1.96   0.68   0.00   0.00   3.02   0.06  -0.00   0.00   0.00  -0.00  -0.00  -8.12
     66:    0.00   0.00   0.00   0.00   0.00  17.11   0.00   0.00   0.27  31.60   0.44  34.16   0.00   0.00
     67:    0.00   0.00   0.00  -0.00   0.00  -0.98   0.00   0.00   0.00   0.11  -0.05  -3.81   0.00   0.00
     69:   10.65   2.60   0.01   0.31  17.50  -0.00   0.13   5.75   0.00  -0.00   0.00  -0.00   0.73   0.14
     70:    0.23   0.28   0.00   0.01   1.24  -0.00   0.04   1.43  -0.00  -0.00   0.00  -0.00  -0.51  -1.66
     74:    0.00   0.00   0.00   0.00   0.00   0.00  -0.00   0.00   0.60   0.00   1.12   0.02   0.00   0.00
     78:    0.24   4.03   0.00   0.03   0.01  -0.00  -0.05  -0.01   0.00   0.00   0.00  -0.00  -0.24   0.01
     79:   -0.08   0.11   0.00  -0.16  -0.03  -0.00  -0.02  -0.00  -0.00   0.00   0.00  -0.00  -2.69  -0.21
     82:    7.80   1.94   3.84  10.13   2.98   0.00   6.57   0.29  -0.00  -0.00   0.00   0.00   0.53  -0.74
     83:    0.17   0.21   0.51   0.24   0.86  -0.00   2.00  -0.09  -0.00  -0.00   0.00  -0.00  -0.37  -8.96
     85:   -0.00  -0.00  -0.00   0.00  -0.00  17.17  -0.00   0.00  26.20   5.61  22.32  12.22   0.00  -0.00
     86:   -0.00  -0.00  -0.00   0.00   0.00  -0.98  -0.00   0.00   0.09   0.02  -2.49  -1.37   0.00  -0.00
     88:    2.87   0.72  10.58   5.09  -0.07  -0.00  -0.12   8.37   0.00   0.00  -0.00   0.00   0.19  -0.35
     89:    0.07   0.08   1.47   0.94  -0.12  -0.00  -0.28   2.91   0.00  -0.00  -0.00   0.00  -0.13  -1.06
     97:    0.24   4.01  -0.00   0.01   0.02  -0.00  -0.04  -0.02   0.00   0.00   0.00   0.00  -0.24   0.04
     98:   -0.08   0.11   0.00  -0.11  -0.07   0.00  -0.01  -0.01   0.00   0.00  -0.00  -0.00  -2.69  -0.60
    101:    8.22   2.01   3.39   7.26   6.44   0.00   6.69  -0.16  -0.00   0.00  -0.00   0.00   0.55   0.44
    102:    0.18   0.22   0.48  -0.09   1.22  -0.00   2.18  -0.35   0.00   0.00  -0.00  -0.00  -0.39  -9.42
    104:    0.00   0.00   0.00  -0.00   0.00  17.28   0.00   0.00  21.18  10.53  28.97   5.48   0.00  -0.00
    105:    0.00   0.00   0.00  -0.00   0.00  -0.98   0.00   0.00   0.08   0.04  -3.24  -0.61  -0.00   0.00
    107:    2.50   0.60  11.16   4.04   0.40  -0.00   0.25   8.15  -0.00   0.00  -0.00   0.00   0.17   0.28
    108:    0.05   0.06   1.54   1.12  -0.32  -0.00  -0.15   2.82   0.00  -0.00   0.00   0.00  -0.12  -1.65
    115:    5.56   9.16   0.00  11.13   1.81  -0.00  11.29   2.06   0.00   0.00   0.00   0.00   7.80   7.61
    116:   -0.02   0.16  -0.00   0.13   0.02   0.00  -0.17  -0.03   0.00   0.00   0.00   0.00  11.27  11.31
    121:    5.52   9.22   0.00   8.07   4.86   0.00   8.55   4.80   0.00   0.00   0.00  -0.00   7.80  21.75
    122:   -0.02   0.16  -0.00   0.10   0.06  -0.00  -0.12  -0.07   0.00  -0.00   0.00  -0.00  11.28  32.33
    125:    0.00   0.00   0.00   0.00   0.00   0.25   0.00   0.00   0.55   0.28   1.16   0.22   0.00  -0.00
    127:    5.49   9.18   0.00   0.24  12.73   0.00   0.20  13.15   0.00   0.00  -0.00   0.00   7.80   3.62
    128:   -0.02   0.16  -0.00   0.00   0.16  -0.00  -0.00  -0.19   0.00   0.00  -0.00   0.00  11.28   5.38
    131:   -0.00  -0.00  -0.00   0.00   0.00   0.25   0.00   0.00   0.01   0.83   0.02   1.36   0.00  -0.00
    133:    5.53   9.24   0.00  11.03   1.87   0.00  11.34   2.00  -0.00   0.00   0.00   0.00   7.80   7.62
    134:   -0.02   0.16  -0.00   0.13   0.02  -0.00  -0.17  -0.03  -0.00   0.00   0.00   0.00  11.27  11.33
    139:    5.56   9.12   0.00   8.19   4.79  -0.00   8.49   4.88   0.00  -0.00   0.00  -0.00   7.82  21.74
    140:   -0.02   0.16  -0.00   0.10   0.06   0.00  -0.13  -0.07  -0.00  -0.00   0.00  -0.00  11.29  32.29
    143:   -0.00  -0.00  -0.00   0.00   0.00   0.26  -0.00  -0.00   0.56   0.28   1.15   0.22   0.00  -0.00
    145:    5.56   9.00   0.00   0.24  12.82   0.00   0.20  13.18  -0.00  -0.00   0.00   0.00   7.82   3.61
    146:   -0.02   0.16  -0.00   0.00   0.16  -0.00  -0.00  -0.19  -0.00  -0.00  -0.00  -0.00  11.27   5.36
    149:    0.00  -0.00   0.00  -0.00   0.00   0.26   0.00   0.00   0.01   0.82   0.02   1.35   0.00  -0.00


 Summation over all MOs, multiplied by occupation: Total SFO Gross Populations in this Irrep
 ===========================================================================================

     2.00    1.07   -0.01   -0.00   -0.00    0.84    0.07   -0.01    0.98   -0.02   -0.00    0.81
     0.03   -0.01    0.02    0.01    0.01    0.02    0.00    2.00    1.07   -0.01   -0.00   -0.00
     0.82    0.04   -0.01    0.98   -0.02   -0.00    0.83    0.06   -0.01    0.02    0.01    0.01
     0.02    0.01    2.00    1.07   -0.01   -0.00   -0.00    0.82    0.04   -0.01    0.98   -0.02
    -0.00    0.83    0.06   -0.01    0.02    0.01    0.01    0.02    0.01    2.00    1.07   -0.01
    -0.00   -0.00    0.84    0.07   -0.01    0.98   -0.02   -0.00    0.81    0.03   -0.01    0.02
     0.01    0.01    0.02    0.00    2.00    1.07   -0.01   -0.00   -0.00    0.82    0.04   -0.01
     0.98   -0.02   -0.00    0.83    0.06   -0.01    0.02    0.01    0.01    0.02    0.01    2.00
     1.07   -0.01   -0.00   -0.00    0.82    0.04   -0.01    0.98   -0.02   -0.00    0.84    0.06
    -0.01    0.02    0.01    0.01    0.02    0.01    1.11   -0.00   -0.00    0.03    0.02    0.02
     1.11   -0.00   -0.00    0.03    0.02    0.02    1.11   -0.00   -0.00    0.02    0.02    0.03
     1.11   -0.00   -0.00    0.03    0.02    0.02    1.11   -0.00   -0.00    0.03    0.02    0.02
     1.11   -0.00   -0.00    0.02    0.02    0.03



 List of all MOs, ordered by energy, with the most significant SFO gross populations
 ===================================================================================

 Each percentage contribution in the table below corresponds to the indicated SFO.
 In general, a SFO may be a linear combination of several Fragment Orbitals on the same,
 or on symmetry-related Fragments. Only the first 'member' of such a combination is
 specified here. A full definition of all SFOs is given in an earlier part of the output.
 The numbering of the SFOs in this table does NOT include the Core Orbitals, and starts
 from one for each symmetry representation, as in the SFO definition list earlier.

       E(eV)  Occ       MO           %     SFO (first member)   E(eV)  Occ   Fragment
 -------------------------------------------------------------------------------------

     -21.394  2.00     7 A         14.70%     2 S             -13.876  2.00     1 C
                                   14.65%     2 S             -13.876  2.00     6 C
                                   14.64%     2 S             -13.876  2.00     2 C
                                   14.55%     2 S             -13.876  2.00     5 C
                                   14.53%     2 S             -13.876  2.00     3 C
                                   14.49%     2 S             -13.876  2.00     4 C
                                    2.38%     1 P:z            -5.403  0.67     1 C
                                    2.37%     1 P:z            -5.403  0.67     4 C
                                    1.83%     1 P:x            -5.403  0.67     6 C
                                    1.81%     1 P:x            -5.403  0.67     3 C
                                    1.75%     1 P:x            -5.403  0.67     2 C
                                    1.73%     1 P:x            -5.403  0.67     5 C
                                    1.25%     1 S              -6.626  1.00    12 H
                                    1.24%     1 S              -6.626  1.00     7 H
                                    1.24%     1 S              -6.626  1.00    11 H
                                    1.23%     1 S              -6.626  1.00    10 H
                                    1.23%     1 S              -6.626  1.00     8 H
                                    1.22%     1 S              -6.626  1.00     9 H
     -18.622  2.00     8 A         20.76%     2 S             -13.876  2.00     5 C
                                   20.76%     2 S             -13.876  2.00     2 C
                                   12.94%     2 S             -13.876  2.00     6 C
                                   12.89%     2 S             -13.876  2.00     3 C
                                    5.55%     1 P:x            -5.403  0.67     1 C
                                    5.47%     1 P:x            -5.403  0.67     4 C
                                    5.12%     1 S              -6.626  1.00     7 H
                                    5.11%     1 S              -6.626  1.00    10 H
                                    3.19%     1 S              -6.626  1.00    11 H
                                    3.16%     1 S              -6.626  1.00     8 H
                                    2.37%     1 P:z            -5.403  0.67     6 C
                                    2.35%     1 P:z            -5.403  0.67     3 C
                                   -1.64%     2 P:x             4.709  0.00     4 C
                                   -1.62%     2 P:x             4.709  0.00     1 C
     -18.619  2.00     9 A         22.21%     2 S             -13.876  2.00     4 C
                                   22.05%     2 S             -13.876  2.00     1 C
                                   10.22%     2 S             -13.876  2.00     3 C
                                   10.08%     2 S             -13.876  2.00     6 C
                                    5.46%     1 S              -6.626  1.00     9 H
                                    5.44%     1 S              -6.626  1.00    12 H
                                    3.50%     1 P:z            -5.403  0.67     2 C
                                    3.47%     1 P:z            -5.403  0.67     5 C
                                    2.52%     1 S              -6.626  1.00     8 H
                                    2.48%     1 S              -6.626  1.00    11 H
                                    2.35%     2 S             -13.876  2.00     5 C
                                    2.27%     2 S             -13.876  2.00     2 C
                                    2.01%     1 P:z            -5.403  0.67     6 C
                                    1.99%     1 P:z            -5.403  0.67     3 C
                                    1.66%     1 P:x            -5.403  0.67     2 C
                                    1.65%     1 P:x            -5.403  0.67     5 C
[...]
 CRIT  9.612836191732294E-002
 iter.  8 V(1) measure  0.8938800704292E+05
        8        delta  0.4478882166877E+00
 CRIT  8.755437390100859E-002
 iter.  9 V(1) measure  0.8938765561380E+05
        9        delta  0.3514291289757E+00
 CRIT  2.583649447501707E-002
 iter. 10 V(1) measure  0.8938759814806E+05
       10        delta  0.5746573254874E-01
 *** convergence reached

    RRIJmat_z_z         
    using first order VWN potential
 
    NOTE: We will NOT use the GGA kernel (input option ALDA was set)
 
 CRIT   1.00000000000000     
 iter.  1 V(1) measure  0.1302563284600E+04
 *** convergence criterion : .1302563E-02
 CRIT   160.094128552946     
 iter.  2 V(1) measure  0.1073573815023E+04
        2        delta  0.2289894695771E+03
 CRIT   60.9085089000390     
 iter.  3 V(1) measure  0.1109009388902E+04
        3        delta  0.3543557387902E+02
 CRIT   14.2446283429893     
 iter.  4 V(1) measure  0.1113669317205E+04
        4        delta  0.4659928303491E+01
 CRIT   5.17061995443833     
 iter.  5 V(1) measure  0.1115242140344E+04
        5        delta  0.1572823139025E+01
 CRIT   2.28134193259565     
 iter.  6 V(1) measure  0.1115671471461E+04
        6        delta  0.4293311167612E+00
 CRIT  0.989035259754932     
 iter.  7 V(1) measure  0.1115778892427E+04
        7        delta  0.1074209658802E+00
 CRIT  0.476624145660876     
 iter.  8 V(1) measure  0.1115785686470E+04
        8        delta  0.6794043248647E-02
 CRIT  0.127189593700614     
 iter.  9 V(1) measure  0.1115779064413E+04
        9        delta  0.6622057175491E-02
 CRIT  5.702315785879436E-002
 iter. 10 V(1) measure  0.1115777092937E+04
       10        delta  0.1971475630853E-02
 CRIT  1.976468331307333E-002
 iter. 11 V(1) measure  0.1115776718125E+04
       11        delta  0.3748125911898E-03
 *** convergence reached
 ------------------------------------------
 Convergence acceleration: T
 QUADRUPOLE-QUADRUPOLE POLARIZABILITY     
 Frequency  =  0.1322975682     Hartrees
 Wavelength =   344.4005294     nm
 Wavenumber =   29035.96001     cm^{-1}
 Energy     =   3.600000000     eV
 ------------------------------------------
 QUADRUPOLE-QUADRUPOLE Polarizability tensor:
 
 xx xx     4188.88022975357     
 xx xy   -0.115811727254391     
 xx xz   -0.192175546184831     
 xx yy    -4991.67776726299     
 xx yz    -3.75489073851578     
 xx zz     802.797537509385     
 xy xx   -0.117271073496511     
 xy xy     12591.5923753868     
 xy xz     3.17981348235729     
 xy yy   -0.119023610613685     
 xy yz   -0.669289215617343     
 xy zz    0.236294684147441     
 xz xx   -0.192526052569299     
 xz xy     3.18195674045082     
 xz xz     1693.67788862312     
 xz yy    0.146389755932199     
 xz yz   -0.279656497833236     
 xz zz    4.613629664507754E-002
 yy xx    -4991.77095473986     
 yy xy   -0.106807808849485     
 yy xz    0.138989938923012     
 yy yy     9983.82587059106     
 yy yz    0.757997384725584     
 yy zz    -4992.05491585115     
 yz xx    -3.75713649861587     
 yz xy   -0.699573712120860     
 yz xz   -0.278541246473617     
 yz yy    0.864725366382476     
 yz yz     12590.9350097530     
 yz zz     2.89241113225403     
 zz xx     802.807814223964     
 zz xy    0.234122686622917     
 zz xz    5.232836731207081E-002
 zz yy    -4991.99007765360     
 zz yz     2.88992847254024     
 zz zz     4189.18226342966     
 
 Imaginary QUADRUPOLE-QUADRUPOLE Polarizability tensor:
 
 xx xx     18.7076395533777     
 xx xy   -2.566740997820152E-003
 xx xz   -1.832155822160956E-003
 xx yy    -21.5575266008982     
 xx yz   -8.543107275550195E-002
 xx zz     2.84988704752032     
 xy xx   -2.409881325683858E-003
 xy xy     124.988984047096     
 xy xz    6.176800728497399E-002
 xy yy   -4.585995500684075E-003
 xy yz    1.459262120473247E-004
 xy zz    6.995876826247894E-003
 xz xx   -1.680055081764739E-003
 xz xy    6.176949516846544E-002
 xz xz     7.93264679845072     
 xz yy    1.200229285399267E-003
 xz yz   -4.885677741689357E-003
 xz zz    4.798257963930757E-004
 yy xx    -21.6354952432740     
 yy xy   -5.469182143476835E-002
 yy xz    1.096625981058911E-003
 yy yy     43.2734386247938     
 yy yz    0.506333372435950     
 yy zz    -21.6379433815198     
 yz xx   -8.537119516975339E-002
 yz xy    1.142011552075333E-003
 yz xz   -5.476235976451667E-003
 yz yy    4.417571018143605E-002
 yz yz     124.956668005436     
 yz zz    4.119548498841098E-002
 zz xx     2.84964122825612     
 zz xy    7.216000436343014E-003
 zz xz    5.668664015175229E-004
 zz yy    -21.5607454774716     
 zz yz    4.128555166412509E-002
 zz zz     18.7111042492153     



 =======================================================================
 Electrostatic potential at the Nuclei due to electrons and other nuclei
 =======================================================================
  
         Atom                  Potential
         ----                  ---------
     1)   C                  14.76899648
     2)   C                  14.76883515
     3)   C                  14.76869763
     4)   C                  14.76879708
     5)   C                  14.76875085
     6)   C                  14.76879269
     7)   H                   1.10111824
     8)   H                   1.10114626
     9)   H                   1.10152952
    10)   H                   1.10106824
    11)   H                   1.10120727
    12)   H                   1.10162378
 
 
 ========================
 No memory problems found
 ========================
 
 Maximum number of active allocate calls:        1279
 
 *******************************************************************************

                             A D F   E X I T
 NORMAL TERMINATION



 =================
 Timing Statistics
 =================
  
 Total Used :                     CPU=       45.97      System=        0.75     Elapsed=       47.42

 Calls  Section                     ( Mean, Percentage )
 ---------------------------------------------------------------------------------------------------
     3  ><      ................      0.00    0.01             0.00    0.00             0.00    0.01
     1  INIT    ................      0.55    1.19             0.00    0.00             0.56    1.19
     1  GEOMET  ................      0.05    0.10             0.00    0.42             0.05    0.11
     1  FRAGM   ................      0.01    0.03             0.02    3.14             0.04    0.08
     1  INPUTA  ................      0.00    0.01             0.00    0.00             0.00    0.01
     1  ATDEN   ................      0.00    0.01             0.00    0.00             0.00    0.01
     1  MAINSY  ................      0.03    0.07             0.00    0.53             0.04    0.07
     1  SYMFIT  ................      0.01    0.02             0.00    0.01             0.01    0.02
     1  CORORT  ................      0.00    0.00             0.00    0.01             0.00    0.00
     1  SYMORB  ................      0.00    0.01             0.00    0.00             0.00    0.01
     1  CLSMAT  ................      0.01    0.03             0.00    0.00             0.01    0.03
     1  ORTHON  ................      0.02    0.04             0.00    0.00             0.02    0.03
     1  GENPT   ................      0.12    0.26             0.01    1.58             0.13    0.28
     1  PTBAS   ................      0.09    0.20             0.00    0.55             0.09    0.20
    12  FOCKY   ................      0.29    7.55             0.00    4.34             0.29    7.42
    12  FOCKTR  ................      0.00    0.07             0.00    0.61             0.00    0.08
    12  SDIIS   ................      0.00    0.12             0.00    0.47             0.00    0.13
     1  COREPS  ................      0.21    0.46             0.00    0.54             0.22    0.46
     1  TOTEN   ................      0.99    2.15             0.02    2.40             1.01    2.14
     1  POPAN   ................      0.01    0.01             0.00    0.28             0.01    0.02
     1  DEBYE   ................      0.01    0.03             0.00    0.53             0.02    0.03
     1  INPUTE  ................      0.00    0.00             0.00    0.00             0.00    0.00
     1  SYMORE  ................      0.00    0.00             0.00    0.00             0.00    0.00
     1  METS    ................      0.00    0.00             0.00    0.00             0.00    0.00
     1  CETS    ................      0.01    0.02             0.00    0.10             0.01    0.02
     1  ELNRGY  ................      0.01    0.02             0.00    0.44             0.01    0.02
     1  POPUL   ................      0.01    0.02             0.01    0.85             0.01    0.03
     1  AORESPONSE .............     40.23   87.53             0.62   82.65            41.51   87.53
     1  EXIT PROCEDURE .........      0.02    0.05             0.00    0.52             0.03    0.06


 Currently Open Files (EXIT00)
 ====================

 Unit    Access Format  Status   Type       Ident (file)
 -------------------------------------------------------
   3      SEQ    FORM   TRANSP  NORMAL      LOGFILE
                                          ( logfile )

 ***************************************************************************************************
 (LOGFILE)
 <Sep29-2020> <15:21:23>  ADF 2019  RunTime: Sep29-2020 15:21:23  Nodes: 1  Procs: 1
 <Sep29-2020> <15:21:23>  Hydrogen (TZP)
 <Sep29-2020> <15:21:23>  RunType   : CREATE
 <Sep29-2020> <15:21:23>  Net Charge: 0 (Nuclei minus Electrons)
 <Sep29-2020> <15:21:23>  Symmetry  : ATOM
  Coordinates
    Atom         X           Y           Z   (Angstrom)
    1.H         0.000000    0.000000    0.000000
 <Sep29-2020> <15:21:23>  >>>> CORORT
 <Sep29-2020> <15:21:23>  >>>> CLSMAT
 <Sep29-2020> <15:21:23>  >>>> ORTHON
 <Sep29-2020> <15:21:23>  >>>> GENPT
 <Sep29-2020> <15:21:23>  Block Length=  64
 <Sep29-2020> <15:21:23>  >>>> PTBAS
 <Sep29-2020> <15:21:23>  >>>> CYCLE
 <Sep29-2020> <15:21:23>              |Error|         MaxErr       Wt(A-DIIS)
 <Sep29-2020> <15:21:23>      1      0.00000000      0.00000000
 <Sep29-2020> <15:21:23>      2      0.03052909      0.02968459
 <Sep29-2020> <15:21:23>      3      0.00718138      0.00670742    100.0
 <Sep29-2020> <15:21:23>      4      0.00117303      0.00114116      0.1
 <Sep29-2020> <15:21:23>      5      0.00002783      0.00002380      0.0
 <Sep29-2020> <15:21:23>      6      0.00000153      0.00000130      0.0
 <Sep29-2020> <15:21:23>      7      0.00000000      0.00000000      0.0
 <Sep29-2020> <15:21:23>  SCF converged
 <Sep29-2020> <15:21:23>      8      0.00000000      0.00000000      0.0
 <Sep29-2020> <15:21:23>  >>>> POPAN
 <Sep29-2020> <15:21:23>  >>>> DEBYE
 <Sep29-2020> <15:21:23>  NORMAL TERMINATION
 <Sep29-2020> <15:21:23>  END
 <Sep29-2020> <15:21:24>  ADF 2019  RunTime: Sep29-2020 15:21:24  Nodes: 1  Procs: 1
 <Sep29-2020> <15:21:24>  Carbon (TZP)
 <Sep29-2020> <15:21:24>  RunType   : CREATE
 <Sep29-2020> <15:21:24>  Net Charge: 0 (Nuclei minus Electrons)
 <Sep29-2020> <15:21:24>  Symmetry  : ATOM
  Coordinates
    Atom         X           Y           Z   (Angstrom)
    1.C         0.000000    0.000000    0.000000
 <Sep29-2020> <15:21:24>  >>>> CORORT
 <Sep29-2020> <15:21:24>  >>>> CLSMAT
 <Sep29-2020> <15:21:24>  >>>> ORTHON
 <Sep29-2020> <15:21:24>  >>>> GENPT
 <Sep29-2020> <15:21:24>  Block Length=  72
 <Sep29-2020> <15:21:24>  >>>> PTBAS
 <Sep29-2020> <15:21:24>  >>>> CYCLE
 <Sep29-2020> <15:21:24>              |Error|         MaxErr       Wt(A-DIIS)
 <Sep29-2020> <15:21:24>      1      0.00000000      0.00000000
 <Sep29-2020> <15:21:24>      2      4.48324754      3.31969244    100.0
 <Sep29-2020> <15:21:24>      3      1.61537707      1.30410194    100.0
 <Sep29-2020> <15:21:24>      4      0.72706284      0.59053131    100.0
 <Sep29-2020> <15:21:24>      5      0.40898688      0.33263800    100.0
 <Sep29-2020> <15:21:24>      6      0.13548919      0.10594416    100.0
 <Sep29-2020> <15:21:24>      7      0.11406432      0.09088019     90.8
 <Sep29-2020> <15:21:24>      8      0.01170325      0.00926551      8.3
 <Sep29-2020> <15:21:24>      9      0.00078015      0.00061791      0.0
 <Sep29-2020> <15:21:24>     10      0.00000178      0.00000107      0.0
 <Sep29-2020> <15:21:24>     11      0.00000024      0.00000019      0.0
 <Sep29-2020> <15:21:24>     12      0.00000000      0.00000000      0.0
 <Sep29-2020> <15:21:24>  SCF converged
 <Sep29-2020> <15:21:24>     13      0.00000000      0.00000000      0.0
 <Sep29-2020> <15:21:24>  >>>> POPAN
 <Sep29-2020> <15:21:24>  >>>> DEBYE
 <Sep29-2020> <15:21:24>  NORMAL TERMINATION
 <Sep29-2020> <15:21:24>  END
 <Sep29-2020> <15:21:25>  ADF 2019  RunTime: Sep29-2020 15:21:25  Nodes: 1  Procs: 6
 <Sep29-2020> <15:21:25>  None
 <Sep29-2020> <15:21:25>  RunType   : SINGLE POINT
 <Sep29-2020> <15:21:25>  Net Charge: 0 (Nuclei minus Electrons)
 <Sep29-2020> <15:21:25>  Symmetry  : NOSYM
 <Sep29-2020> <15:21:25>  >>>> FRAGM
  Coordinates
    Atom         X           Y           Z   (Angstrom)
    1.C         0.029742    4.000000   -1.398097
    2.C        -1.196444    4.000000   -0.725792
    3.C        -1.227261    4.000000    0.673261
    4.C        -0.029658    4.000000    1.399103
    5.C         1.197556    4.000000    0.724808
    6.C         1.226139    4.000000   -0.674139
    7.H        -2.131201    4.000000   -1.289177
    8.H        -2.182259    4.000000    1.202033
    9.H        -0.053212    4.000000    2.490698
   10.H         2.129005    4.000000    1.293823
   11.H         2.184041    4.000000   -1.197572
   12.H         0.052688    4.000000   -2.489502
 <Sep29-2020> <15:21:25>  >>>> CORORT
 <Sep29-2020> <15:21:25>  >>>> CLSMAT
 <Sep29-2020> <15:21:25>  >>>> ORTHON
 <Sep29-2020> <15:21:25>  >>>> GENPT
 <Sep29-2020> <15:21:25>  Block Length= 128
 <Sep29-2020> <15:21:26>  >>>> PTBAS
 <Sep29-2020> <15:21:26>  >>>> CYCLE
 <Sep29-2020> <15:21:26>              |Error|         MaxErr       Wt(A-DIIS)
 <Sep29-2020> <15:21:26>      1      5.99093023      0.98077892
 <Sep29-2020> <15:21:26>      2      0.89232764      0.18749161    100.0
 <Sep29-2020> <15:21:27>      3      0.52145209      0.10271505    100.0
 <Sep29-2020> <15:21:27>      4      0.74325425      0.17288720    100.0
 <Sep29-2020> <15:21:27>      5      0.07622745      0.01081302      9.9
 <Sep29-2020> <15:21:28>      6      0.01080377      0.00181417      0.8
 <Sep29-2020> <15:21:28>      7      0.00237992      0.00059855      0.0
 <Sep29-2020> <15:21:28>      8      0.00202828      0.00049426      0.0
 <Sep29-2020> <15:21:28>      9      0.00008435      0.00002135      0.0
 <Sep29-2020> <15:21:29>     10      0.00010342      0.00002601      0.0
 <Sep29-2020> <15:21:29>     11      0.00000132      0.00000036      0.0
 <Sep29-2020> <15:21:29>  SCF converged
 <Sep29-2020> <15:21:29>     12      0.00000042      0.00000010      0.0
 <Sep29-2020> <15:21:29>  >>>> TOTEN
 <Sep29-2020> <15:21:30>  >>>> POPAN
 <Sep29-2020> <15:21:30>  >>>> DEBYE
 <Sep29-2020> <15:21:31>  >>>> AMETS
 <Sep29-2020> <15:21:31>  >>>> POPUL
 <Sep29-2020> <15:21:31>     1 V(1)  0.1844030E+04
 <Sep29-2020> <15:21:31>     2 V(1)  0.1574251E+04
 <Sep29-2020> <15:21:32>     3 V(1)  0.1556949E+04
 <Sep29-2020> <15:21:32>     4 V(1)  0.1563503E+04
 <Sep29-2020> <15:21:32>     5 V(1)  0.1565459E+04
 <Sep29-2020> <15:21:33>     6 V(1)  0.1565337E+04
 <Sep29-2020> <15:21:33>     7 V(1)  0.1565285E+04
 <Sep29-2020> <15:21:34>     8 V(1)  0.1565280E+04
 <Sep29-2020> <15:21:34>     9 V(1)  0.1565275E+04
 <Sep29-2020> <15:21:34>    10 V(1)  0.1565274E+04
 <Sep29-2020> <15:21:34>   convergence reached
 <Sep29-2020> <15:21:35>     1 V(1)  0.2536250E+02
 <Sep29-2020> <15:21:35>     2 V(1)  0.2328920E+02
 <Sep29-2020> <15:21:35>     3 V(1)  0.2328385E+02
 <Sep29-2020> <15:21:36>     4 V(1)  0.2328311E+02
 <Sep29-2020> <15:21:36>     5 V(1)  0.2328299E+02
 <Sep29-2020> <15:21:37>     6 V(1)  0.2328301E+02
 <Sep29-2020> <15:21:37>   convergence reached
 <Sep29-2020> <15:21:37>     1 V(1)  0.1841833E+04
 <Sep29-2020> <15:21:38>     2 V(1)  0.1572270E+04
 <Sep29-2020> <15:21:38>     3 V(1)  0.1555016E+04
 <Sep29-2020> <15:21:38>     4 V(1)  0.1561558E+04
 <Sep29-2020> <15:21:39>     5 V(1)  0.1563514E+04
 <Sep29-2020> <15:21:39>     6 V(1)  0.1563403E+04
 <Sep29-2020> <15:21:40>     7 V(1)  0.1563341E+04
 <Sep29-2020> <15:21:40>     8 V(1)  0.1563335E+04
 <Sep29-2020> <15:21:40>     9 V(1)  0.1563330E+04
 <Sep29-2020> <15:21:41>    10 V(1)  0.1563329E+04
 <Sep29-2020> <15:21:41>   convergence reached
 <Sep29-2020> <15:21:41>     1 V(1)  0.1302889E+04
 <Sep29-2020> <15:21:42>     2 V(1)  0.1073748E+04
 <Sep29-2020> <15:21:43>     3 V(1)  0.1109274E+04
 <Sep29-2020> <15:21:43>     4 V(1)  0.1114274E+04
 <Sep29-2020> <15:21:44>     5 V(1)  0.1115452E+04
 <Sep29-2020> <15:21:44>     6 V(1)  0.1115862E+04
 <Sep29-2020> <15:21:45>     7 V(1)  0.1115965E+04
 <Sep29-2020> <15:21:45>     8 V(1)  0.1115967E+04
 <Sep29-2020> <15:21:46>     9 V(1)  0.1115961E+04
 <Sep29-2020> <15:21:46>    10 V(1)  0.1115959E+04
 <Sep29-2020> <15:21:47>    11 V(1)  0.1115959E+04
 <Sep29-2020> <15:21:47>   convergence reached
 <Sep29-2020> <15:21:47>     1 V(1)  0.1057868E+06
 <Sep29-2020> <15:21:48>     2 V(1)  0.8966101E+05
 <Sep29-2020> <15:21:49>     3 V(1)  0.8876555E+05
 <Sep29-2020> <15:21:49>     4 V(1)  0.8939178E+05
 <Sep29-2020> <15:21:50>     5 V(1)  0.8951068E+05
 <Sep29-2020> <15:21:50>     6 V(1)  0.8950245E+05
 <Sep29-2020> <15:21:51>     7 V(1)  0.8949950E+05
 <Sep29-2020> <15:21:51>     8 V(1)  0.8949910E+05
 <Sep29-2020> <15:21:52>     9 V(1)  0.8949875E+05
 <Sep29-2020> <15:21:52>    10 V(1)  0.8949870E+05
 <Sep29-2020> <15:21:52>   convergence reached
 <Sep29-2020> <15:21:53>     1 V(1)  0.6151088E+03
 <Sep29-2020> <15:21:53>     2 V(1)  0.4702786E+03
 <Sep29-2020> <15:21:54>     3 V(1)  0.4839883E+03
 <Sep29-2020> <15:21:54>     4 V(1)  0.4848091E+03
 <Sep29-2020> <15:21:55>     5 V(1)  0.4858197E+03
 <Sep29-2020> <15:21:55>     6 V(1)  0.4860098E+03
 <Sep29-2020> <15:21:56>     7 V(1)  0.4860355E+03
 <Sep29-2020> <15:21:56>     8 V(1)  0.4860366E+03
 <Sep29-2020> <15:21:56>     9 V(1)  0.4860356E+03
 <Sep29-2020> <15:21:57>    10 V(1)  0.4860348E+03
 <Sep29-2020> <15:21:58>    11 V(1)  0.4860346E+03
 <Sep29-2020> <15:21:58>   convergence reached
 <Sep29-2020> <15:21:58>     1 V(1)  0.2748757E+04
 <Sep29-2020> <15:21:59>     2 V(1)  0.2507409E+04
 <Sep29-2020> <15:21:59>     3 V(1)  0.2520123E+04
 <Sep29-2020> <15:22:00>     4 V(1)  0.2520401E+04
 <Sep29-2020> <15:22:00>     5 V(1)  0.2520578E+04
 <Sep29-2020> <15:22:01>     6 V(1)  0.2520577E+04
 <Sep29-2020> <15:22:01>   convergence reached
 <Sep29-2020> <15:22:01>     1 V(1)  0.1056611E+06
 <Sep29-2020> <15:22:02>     2 V(1)  0.8954817E+05
 <Sep29-2020> <15:22:02>     3 V(1)  0.8865539E+05
 <Sep29-2020> <15:22:03>     4 V(1)  0.8928073E+05
 <Sep29-2020> <15:22:04>     5 V(1)  0.8939951E+05
 <Sep29-2020> <15:22:04>     6 V(1)  0.8939198E+05
 <Sep29-2020> <15:22:05>     7 V(1)  0.8938845E+05
 <Sep29-2020> <15:22:05>     8 V(1)  0.8938801E+05
 <Sep29-2020> <15:22:06>     9 V(1)  0.8938766E+05
 <Sep29-2020> <15:22:06>    10 V(1)  0.8938760E+05
 <Sep29-2020> <15:22:06>   convergence reached
 <Sep29-2020> <15:22:07>     1 V(1)  0.1302563E+04
 <Sep29-2020> <15:22:07>     2 V(1)  0.1073574E+04
 <Sep29-2020> <15:22:08>     3 V(1)  0.1109009E+04
 <Sep29-2020> <15:22:09>     4 V(1)  0.1113669E+04
 <Sep29-2020> <15:22:09>     5 V(1)  0.1115242E+04
 <Sep29-2020> <15:22:10>     6 V(1)  0.1115671E+04
 <Sep29-2020> <15:22:10>     7 V(1)  0.1115779E+04
 <Sep29-2020> <15:22:11>     8 V(1)  0.1115786E+04
 <Sep29-2020> <15:22:11>     9 V(1)  0.1115779E+04
 <Sep29-2020> <15:22:12>    10 V(1)  0.1115777E+04
 <Sep29-2020> <15:22:12>    11 V(1)  0.1115777E+04
 <Sep29-2020> <15:22:12>   convergence reached
 <Sep29-2020> <15:22:12>  NORMAL TERMINATION
 <Sep29-2020> <15:22:12>  END
