

 Parallel Execution: Process Information
 ==============================================================================
 Rank   Node Name                              NodeID   MyNodeRank  NodeMaster
    0   magnesium.science.psu.edu                 0          0          0
    1   magnesium.science.psu.edu                 0          1         -1
    2   magnesium.science.psu.edu                 0          2         -1
    3   magnesium.science.psu.edu                 0          3         -1
    4   magnesium.science.psu.edu                 0          4         -1
    5   magnesium.science.psu.edu                 0          5         -1
 ==============================================================================


May use up to 7495MB of RAM as shared memory on node 0
 
TITLE None

ATOMS
1  C     0.03135162    4.00000000   -1.39856294
2  C    -1.19785757    4.00000000   -0.72387601
3  C    -1.22749934    4.00000000    0.67224425
4  C    -0.02804309    4.00000000    1.39863176
5  C     1.19614243    4.00000000    0.72672399
6  C     1.22590066    4.00000000   -0.67516105
7  H    -2.12937477    4.00000000   -1.29269107
8  H    -2.18243300    4.00000000    1.20101225
9  H    -0.05438164    4.00000000    2.49006824
10 H     2.13081464    4.00000000    1.29033010
11 H     2.18387759    4.00000000   -1.19857717
12 H     0.05153424    4.00000000   -2.49013176
END

XC
 gga BP86
end

symmetry nosym

aoresponse
 alda
 frequency 1 3.6 eV
 lifetime 0.0037
 El_Dipole_El_Dipole
 El_Dipole_El_Quadrupole
 El_Quadrupole_El_Quadrupole
 Traceless
end

Fragments
H t21.H
C t21.C
End

 *******************************************************************************
 *                                                                             *
 *  -------------------------------------                                      *
 *   Amsterdam Density Functional  (ADF)         2019                          *
 *  -------------------------------------                                      *
 *                                               r75281 2019-06-03             *
 *                                                                             *
 *                                                                             *
 *                              =================                              *
 *                              |               |                              *
 *                              |     A D F     |                              *
 *                              |               |                              *
 *                              =================                              *
 *                                                                             *
 *                                                                             *
 *   Online information and documentation:  https://www.scm.com/support/       *
 *   E-mail:  support@scm.com   info@scm.com                                   *
 *                                                                             *
 *   Scientific publications using ADF results must be properly referenced     *
 *   See the User Manuals (or the web site) for recommended citations          *
 *   The terms and conditions of the End User License Agreement apply to       *
 *   the use of ADF, https://www.scm.com/license-terms/                        *
 *                                                                             *
 **********************  x86_64_linux_intel / intelmpi  ************************
 
 Licensed to: Prof. Lasse Jensen / Penn State University / University Park / PA  / USA
 SCM User ID: u8493
  
 ADF 2019  RunTime: Sep29-2020 15:18:47  Nodes: 1  Procs: 6

 Temporary files are created in /scratch/kid_0.1662132716


Communication costs MPI_COMM_WORLD:      0.409 usec per message,   0.0065 usec per 8-byte item
Communication costs for intra-node:      0.367 usec per message,   0.0067 usec per 8-byte item

 None



 ===========================
 A T T A C H E D   F I L E S
 ===========================
  



 ===============================
 M O D E L   P A R A M E T E R S
 ===============================
  
 DENSITY FUNCTIONAL POTENTIAL (scf)
    LDA:                               VWN                                      
    Gradient Corrections:              Becke88 Perdew86                        == Not Default ==

 SPIN  (restricted / unrestr.)
    Molecule:                          Restricted                               
    Fragments:                         Restricted                               

 OTHER ASPECTS
    Relativistic Corrections:          ---                                      

    Nuclear Charge Density Model:      Point Charge Nuclei                      
    Core Treatment:                    Frozen Orbital(s)                        

    Hyperfine or Zeeman Interaction:   ---                                      


 Fragment File(s)
 ----------------
 C:
         file : t21.C
         jobid: ADF 2019  RunTime: Sep29-2020 15:18:46  Nodes: 1  Procs: 1
         title: Carbon (TZP)
 H:
         file : t21.H
         jobid: ADF 2019  RunTime: Sep29-2020 15:18:46  Nodes: 1  Procs: 1
         title: Hydrogen (TZP)



                                        ************************************
                                        *  R U N   T Y P E : SINGLE POINT  *
                                        ************************************
  



 ===============
 G E O M E T R Y  ***  Planar Molecule  ***
 ===============
  

 ATOMS
 =====                            X Y Z                    CHARGE
                                (Angstrom)             Nucl     +Core       At.Mass
                       --------------------------    ----------------       -------
    1  C               0.0314    4.0000   -1.3986      6.00      6.00       12.0000
    2  C              -1.1979    4.0000   -0.7239      6.00      6.00       12.0000
    3  C              -1.2275    4.0000    0.6722      6.00      6.00       12.0000
    4  C              -0.0280    4.0000    1.3986      6.00      6.00       12.0000
    5  C               1.1961    4.0000    0.7267      6.00      6.00       12.0000
    6  C               1.2259    4.0000   -0.6752      6.00      6.00       12.0000
    7  H              -2.1294    4.0000   -1.2927      1.00      1.00        1.0078
    8  H              -2.1824    4.0000    1.2010      1.00      1.00        1.0078
    9  H              -0.0544    4.0000    2.4901      1.00      1.00        1.0078
   10  H               2.1308    4.0000    1.2903      1.00      1.00        1.0078
   11  H               2.1839    4.0000   -1.1986      1.00      1.00        1.0078
   12  H               0.0515    4.0000   -2.4901      1.00      1.00        1.0078


 FRAGMENTS
 =========                                     Atoms in this Fragment     Cart. coord.s (Angstrom)
                                               -------------------------------------------------------
    1  C                                                 1  C            0.0314    4.0000   -1.3986
    2  C                                                 2  C           -1.1979    4.0000   -0.7239
    3  C                                                 3  C           -1.2275    4.0000    0.6722
    4  C                                                 4  C           -0.0280    4.0000    1.3986
    5  C                                                 5  C            1.1961    4.0000    0.7267
    6  C                                                 6  C            1.2259    4.0000   -0.6752
    7  H                                                 7  H           -2.1294    4.0000   -1.2927
    8  H                                                 8  H           -2.1824    4.0000    1.2010
    9  H                                                 9  H           -0.0544    4.0000    2.4901
   10  H                                                10  H            2.1308    4.0000    1.2903
   11  H                                                11  H            2.1839    4.0000   -1.1986
   12  H                                                12  H            0.0515    4.0000   -2.4901


 Interatomic Distance Matrix (Angstrom)
 --------------------------------------

   1)     0.000
   2)     1.402   0.000
   3)     2.423   1.396   0.000
   4)     2.798   2.424   1.402   0.000
   5)     2.424   2.799   2.424   1.396   0.000
   6)     1.397   2.424   2.799   2.423   1.402   0.000
   7)     2.163   1.091   2.162   3.415   3.891   3.412   0.000
   8)     3.414   2.162   1.092   2.163   3.412   3.891   2.494   0.000
   9)     3.890   3.411   2.163   1.092   2.162   3.414   4.314   2.488   0.000
  10)     3.411   3.891   3.415   2.162   1.091   2.164   4.982   4.314   2.493   0.000
  11)     2.162   3.415   3.891   3.411   2.164   1.092   4.314   4.982   4.315   2.489
          0.000
  12)     1.092   2.163   3.411   3.890   3.414   2.162   2.488   4.315   4.981   4.315
          2.493   0.000

 Min. Distance =    1.0915
 Max. Distance =    4.9822



 =====================================
 S Y M M E T R Y ,   E L E C T R O N S
 =====================================
  
 Symmetry: NOSYM

 Irreducible Representations, including subspecies
 -------------------------------------------------
 A


 Configuration of Valence Electrons
 ==================================
 ( determined in the SCF procedure )

 Total:   42

 Net Charge: 0 (Nuclei minus Electrons)

 Aufbau principle for MO occupations will be applied through SCF cycle no.     150
 Thereafter, the program will assign electrons to MOs that are spatially
 similar to the occupied MOs in a "reference" cycle ("KeepOrbitals").
 The reference cycle is always the PREVIOUS cycle: it will evolve with
 the SCF procedure.
1
 ***************************************************************************************************



                                      ****************************************
                                      *  B U I L D : (Fragments, Functions)  *
                                      ****************************************
  



 =======
 S F O s  ***  (Symmetrized Fragment Orbitals)  ***
 =======
  
 SFOs are linear combinations of (valence) Fragment Orbitals (FOs), such that the SFOs transform as the
 irreducible representations of the (molecular) symmetry group. Each SFO is therefore characterized by
 an irrep of the molecule and by a few (or only one) generating FOs.
 The SFOs constitute a symmetry-adapted basis for the Fock matrix. The MO eigenvector coefficients in
 this basis provide a direct interpretation of the MOs in terms of Frontier Orbital Theory.

 The SFOs are combined with auxiliary Core Functions (CFs) to ensure orthogonalization on the (frozen)
 Core Orbitals (COs). The Core-orthogonalized SFOs (CSFOs) constitute the true Fock basis.

 The FOs, and hence also the (C)SFOs are combinations of the elementary basis functions (BAS). The basis
 functions that participate in the description of the SFOs depend on the irrep. The indices of the
 involved functions are printed below for each irrep.
 (The complete list of primitive basis functions is printed in another section)

 Total nr. of (C)SFOs (summation over all irreps) :   150

 NOTE: a (C)SFO that is defined as a combination of more than one FO is usually NOT normalized.



                                       === A ===
 Nr. of SFOs :  150
 Cartesian basis functions that participate in this irrep (total number =   156) :
      1     2     3     4     5     6     9    12     7    10
     13     8    11    14    15    16    17    18    19    20
     21    22    23    24    25    26    29    32    27    30
     33    28    31    34    35    36    37    38    39    40
     41    42    43    44    45    46    49    52    47    50
     53    48    51    54    55    56    57    58    59    60
     61    62    63    64    65    66    69    72    67    70
     73    68    71    74    75    76    77    78    79    80
     81    82    83    84    85    86    89    92    87    90
     93    88    91    94    95    96    97    98    99   100
    101   102   103   104   105   106   109   112   107   110
    113   108   111   114   115   116   117   118   119   120
    121   122   123   124   125   126   127   128   129   130
    131   132   133   134   135   136   137   138   139   140
    141   142   143   144   145   146   147   148   149   150
    151   152   153   154   155   156

    SFO  (index         Fragment          Generating    Expansion in Fragment Orbitals
  indx  incl.CFs)   Occup   Orb.Energy   FragmentType  Coeff.   Orbital     on Fragment
 --------------------------------------------------------------------------------------
     1       1      2.000     -10.058 au  C             1.00      1 S               1
                        (    -273.681 eV)
     2       2      2.000      -0.510 au  C             1.00      2 S               1
                        (     -13.876 eV)
     3       3       --         0.371 au  C             1.00      3 S               1
                        (      10.091 eV)
     4       4       --         5.428 au  C             1.00      4 S               1
                        (     147.707 eV)
     5       5       --        50.181 au  C             1.00      5 S               1
                        (    1365.486 eV)
     6       6      0.667      -0.199 au  C             1.00      1 P:x             1
                        (      -5.403 eV)
     7       7       --         0.173 au  C             1.00      2 P:x             1
                        (       4.709 eV)
     8       8       --         2.026 au  C             1.00      3 P:x             1
                        (      55.143 eV)
     9       9      0.667      -0.199 au  C             1.00      1 P:y             1
                        (      -5.403 eV)
    10      10       --         0.173 au  C             1.00      2 P:y             1
                        (       4.709 eV)
    11      11       --         2.026 au  C             1.00      3 P:y             1
                        (      55.143 eV)
    12      12      0.667      -0.199 au  C             1.00      1 P:z             1
                        (      -5.403 eV)
    13      13       --         0.173 au  C             1.00      2 P:z             1
                        (       4.709 eV)
    14      14       --         2.026 au  C             1.00      3 P:z             1
                        (      55.143 eV)
    15      15       --         1.232 au  C             1.00      1 D:z2            1
                        (      33.528 eV)
    16      16       --         1.232 au  C             1.00      1 D:x2-y2         1
                        (      33.528 eV)
    17      17       --         1.232 au  C             1.00      1 D:xy            1
                        (      33.528 eV)
    18      18       --         1.232 au  C             1.00      1 D:xz            1
                        (      33.528 eV)
    19      19       --         1.232 au  C             1.00      1 D:yz            1
                        (      33.528 eV)
    20      20      2.000     -10.058 au  C             1.00      1 S               2
                        (    -273.681 eV)
    21      21      2.000      -0.510 au  C             1.00      2 S               2
                        (     -13.876 eV)
    22      22       --         0.371 au  C             1.00      3 S               2
                        (      10.091 eV)
    23      23       --         5.428 au  C             1.00      4 S               2
                        (     147.707 eV)
    24      24       --        50.181 au  C             1.00      5 S               2
                        (    1365.486 eV)
    25      25      0.667      -0.199 au  C             1.00      1 P:x             2
                        (      -5.403 eV)
    26      26       --         0.173 au  C             1.00      2 P:x             2
                        (       4.709 eV)
    27      27       --         2.026 au  C             1.00      3 P:x             2
                        (      55.143 eV)
    28      28      0.667      -0.199 au  C             1.00      1 P:y             2
                        (      -5.403 eV)
    29      29       --         0.173 au  C             1.00      2 P:y             2
                        (       4.709 eV)
    30      30       --         2.026 au  C             1.00      3 P:y             2
                        (      55.143 eV)
    31      31      0.667      -0.199 au  C             1.00      1 P:z             2
                        (      -5.403 eV)
    32      32       --         0.173 au  C             1.00      2 P:z             2
                        (       4.709 eV)
    33      33       --         2.026 au  C             1.00      3 P:z             2
                        (      55.143 eV)
    34      34       --         1.232 au  C             1.00      1 D:z2            2
                        (      33.528 eV)
    35      35       --         1.232 au  C             1.00      1 D:x2-y2         2
                        (      33.528 eV)
    36      36       --         1.232 au  C             1.00      1 D:xy            2
                        (      33.528 eV)
    37      37       --         1.232 au  C             1.00      1 D:xz            2
                        (      33.528 eV)
    38      38       --         1.232 au  C             1.00      1 D:yz            2
                        (      33.528 eV)
    39      39      2.000     -10.058 au  C             1.00      1 S               3
                        (    -273.681 eV)
    40      40      2.000      -0.510 au  C             1.00      2 S               3
                        (     -13.876 eV)
    41      41       --         0.371 au  C             1.00      3 S               3
                        (      10.091 eV)
    42      42       --         5.428 au  C             1.00      4 S               3
                        (     147.707 eV)
    43      43       --        50.181 au  C             1.00      5 S               3
                        (    1365.486 eV)
    44      44      0.667      -0.199 au  C             1.00      1 P:x             3
                        (      -5.403 eV)
    45      45       --         0.173 au  C             1.00      2 P:x             3
                        (       4.709 eV)
    46      46       --         2.026 au  C             1.00      3 P:x             3
                        (      55.143 eV)
    47      47      0.667      -0.199 au  C             1.00      1 P:y             3
                        (      -5.403 eV)
    48      48       --         0.173 au  C             1.00      2 P:y             3
                        (       4.709 eV)
    49      49       --         2.026 au  C             1.00      3 P:y             3
                        (      55.143 eV)
    50      50      0.667      -0.199 au  C             1.00      1 P:z             3
                        (      -5.403 eV)
    51      51       --         0.173 au  C             1.00      2 P:z             3
                        (       4.709 eV)
    52      52       --         2.026 au  C             1.00      3 P:z             3
                        (      55.143 eV)
    53      53       --         1.232 au  C             1.00      1 D:z2            3
                        (      33.528 eV)
    54      54       --         1.232 au  C             1.00      1 D:x2-y2         3
                        (      33.528 eV)
    55      55       --         1.232 au  C             1.00      1 D:xy            3
                        (      33.528 eV)
    56      56       --         1.232 au  C             1.00      1 D:xz            3
                        (      33.528 eV)
    57      57       --         1.232 au  C             1.00      1 D:yz            3
                        (      33.528 eV)
    58      58      2.000     -10.058 au  C             1.00      1 S               4
                        (    -273.681 eV)
    59      59      2.000      -0.510 au  C             1.00      2 S               4
                        (     -13.876 eV)
    60      60       --         0.371 au  C             1.00      3 S               4
                        (      10.091 eV)
    61      61       --         5.428 au  C             1.00      4 S               4
                        (     147.707 eV)
    62      62       --        50.181 au  C             1.00      5 S               4
                        (    1365.486 eV)
    63      63      0.667      -0.199 au  C             1.00      1 P:x             4
                        (      -5.403 eV)
    64      64       --         0.173 au  C             1.00      2 P:x             4
                        (       4.709 eV)
    65      65       --         2.026 au  C             1.00      3 P:x             4
                        (      55.143 eV)
    66      66      0.667      -0.199 au  C             1.00      1 P:y             4
                        (      -5.403 eV)
    67      67       --         0.173 au  C             1.00      2 P:y             4
                        (       4.709 eV)
    68      68       --         2.026 au  C             1.00      3 P:y             4
                        (      55.143 eV)
    69      69      0.667      -0.199 au  C             1.00      1 P:z             4
                        (      -5.403 eV)
    70      70       --         0.173 au  C             1.00      2 P:z             4
                        (       4.709 eV)
    71      71       --         2.026 au  C             1.00      3 P:z             4
                        (      55.143 eV)
    72      72       --         1.232 au  C             1.00      1 D:z2            4
                        (      33.528 eV)
    73      73       --         1.232 au  C             1.00      1 D:x2-y2         4
                        (      33.528 eV)
    74      74       --         1.232 au  C             1.00      1 D:xy            4
                        (      33.528 eV)
    75      75       --         1.232 au  C             1.00      1 D:xz            4
                        (      33.528 eV)
    76      76       --         1.232 au  C             1.00      1 D:yz            4
                        (      33.528 eV)
    77      77      2.000     -10.058 au  C             1.00      1 S               5
                        (    -273.681 eV)
    78      78      2.000      -0.510 au  C             1.00      2 S               5
                        (     -13.876 eV)
    79      79       --         0.371 au  C             1.00      3 S               5
                        (      10.091 eV)
    80      80       --         5.428 au  C             1.00      4 S               5
                        (     147.707 eV)
    81      81       --        50.181 au  C             1.00      5 S               5
                        (    1365.486 eV)
    82      82      0.667      -0.199 au  C             1.00      1 P:x             5
                        (      -5.403 eV)
    83      83       --         0.173 au  C             1.00      2 P:x             5
                        (       4.709 eV)
    84      84       --         2.026 au  C             1.00      3 P:x             5
                        (      55.143 eV)
    85      85      0.667      -0.199 au  C             1.00      1 P:y             5
                        (      -5.403 eV)
    86      86       --         0.173 au  C             1.00      2 P:y             5
                        (       4.709 eV)
    87      87       --         2.026 au  C             1.00      3 P:y             5
                        (      55.143 eV)
    88      88      0.667      -0.199 au  C             1.00      1 P:z             5
                        (      -5.403 eV)
    89      89       --         0.173 au  C             1.00      2 P:z             5
                        (       4.709 eV)
    90      90       --         2.026 au  C             1.00      3 P:z             5
                        (      55.143 eV)
    91      91       --         1.232 au  C             1.00      1 D:z2            5
                        (      33.528 eV)
    92      92       --         1.232 au  C             1.00      1 D:x2-y2         5
                        (      33.528 eV)
    93      93       --         1.232 au  C             1.00      1 D:xy            5
                        (      33.528 eV)
    94      94       --         1.232 au  C             1.00      1 D:xz            5
                        (      33.528 eV)
    95      95       --         1.232 au  C             1.00      1 D:yz            5
                        (      33.528 eV)
    96      96      2.000     -10.058 au  C             1.00      1 S               6
                        (    -273.681 eV)
    97      97      2.000      -0.510 au  C             1.00      2 S               6
                        (     -13.876 eV)
    98      98       --         0.371 au  C             1.00      3 S               6
                        (      10.091 eV)
    99      99       --         5.428 au  C             1.00      4 S               6
                        (     147.707 eV)
   100     100       --        50.181 au  C             1.00      5 S               6
                        (    1365.486 eV)
   101     101      0.667      -0.199 au  C             1.00      1 P:x             6
                        (      -5.403 eV)
   102     102       --         0.173 au  C             1.00      2 P:x             6
                        (       4.709 eV)
   103     103       --         2.026 au  C             1.00      3 P:x             6
                        (      55.143 eV)
   104     104      0.667      -0.199 au  C             1.00      1 P:y             6
                        (      -5.403 eV)
   105     105       --         0.173 au  C             1.00      2 P:y             6
                        (       4.709 eV)
   106     106       --         2.026 au  C             1.00      3 P:y             6
                        (      55.143 eV)
   107     107      0.667      -0.199 au  C             1.00      1 P:z             6
                        (      -5.403 eV)
   108     108       --         0.173 au  C             1.00      2 P:z             6
                        (       4.709 eV)
   109     109       --         2.026 au  C             1.00      3 P:z             6
                        (      55.143 eV)
   110     110       --         1.232 au  C             1.00      1 D:z2            6
                        (      33.528 eV)
   111     111       --         1.232 au  C             1.00      1 D:x2-y2         6
                        (      33.528 eV)
   112     112       --         1.232 au  C             1.00      1 D:xy            6
                        (      33.528 eV)
   113     113       --         1.232 au  C             1.00      1 D:xz            6
                        (      33.528 eV)
   114     114       --         1.232 au  C             1.00      1 D:yz            6
                        (      33.528 eV)
   115     115      1.000      -0.244 au  H             1.00      1 S               7
                        (      -6.626 eV)
   116     116       --         0.093 au  H             1.00      2 S               7
                        (       2.536 eV)
   117     117       --         1.515 au  H             1.00      3 S               7
                        (      41.236 eV)
   118     118       --         0.400 au  H             1.00      1 P:x             7
                        (      10.872 eV)
   119     119       --         0.400 au  H             1.00      1 P:y             7
                        (      10.872 eV)
   120     120       --         0.400 au  H             1.00      1 P:z             7
                        (      10.872 eV)
   121     121      1.000      -0.244 au  H             1.00      1 S               8
                        (      -6.626 eV)
   122     122       --         0.093 au  H             1.00      2 S               8
                        (       2.536 eV)
   123     123       --         1.515 au  H             1.00      3 S               8
                        (      41.236 eV)
   124     124       --         0.400 au  H             1.00      1 P:x             8
                        (      10.872 eV)
   125     125       --         0.400 au  H             1.00      1 P:y             8
                        (      10.872 eV)
   126     126       --         0.400 au  H             1.00      1 P:z             8
                        (      10.872 eV)
   127     127      1.000      -0.244 au  H             1.00      1 S               9
                        (      -6.626 eV)
   128     128       --         0.093 au  H             1.00      2 S               9
                        (       2.536 eV)
   129     129       --         1.515 au  H             1.00      3 S               9
                        (      41.236 eV)
   130     130       --         0.400 au  H             1.00      1 P:x             9
                        (      10.872 eV)
   131     131       --         0.400 au  H             1.00      1 P:y             9
                        (      10.872 eV)
   132     132       --         0.400 au  H             1.00      1 P:z             9
                        (      10.872 eV)
   133     133      1.000      -0.244 au  H             1.00      1 S              10
                        (      -6.626 eV)
   134     134       --         0.093 au  H             1.00      2 S              10
                        (       2.536 eV)
   135     135       --         1.515 au  H             1.00      3 S              10
                        (      41.236 eV)
   136     136       --         0.400 au  H             1.00      1 P:x            10
                        (      10.872 eV)
   137     137       --         0.400 au  H             1.00      1 P:y            10
                        (      10.872 eV)
   138     138       --         0.400 au  H             1.00      1 P:z            10
                        (      10.872 eV)
   139     139      1.000      -0.244 au  H             1.00      1 S              11
                        (      -6.626 eV)
   140     140       --         0.093 au  H             1.00      2 S              11
                        (       2.536 eV)
   141     141       --         1.515 au  H             1.00      3 S              11
                        (      41.236 eV)
   142     142       --         0.400 au  H             1.00      1 P:x            11
                        (      10.872 eV)
   143     143       --         0.400 au  H             1.00      1 P:y            11
                        (      10.872 eV)
   144     144       --         0.400 au  H             1.00      1 P:z            11
                        (      10.872 eV)
   145     145      1.000      -0.244 au  H             1.00      1 S              12
                        (      -6.626 eV)
   146     146       --         0.093 au  H             1.00      2 S              12
                        (       2.536 eV)
   147     147       --         1.515 au  H             1.00      3 S              12
                        (      41.236 eV)
   148     148       --         0.400 au  H             1.00      1 P:x            12
                        (      10.872 eV)
   149     149       --         0.400 au  H             1.00      1 P:y            12
                        (      10.872 eV)
   150     150       --         0.400 au  H             1.00      1 P:z            12
                        (      10.872 eV)



 ================================
 (Slater-type)  F U N C T I O N S  ***  (Basis and Fit)  ***
 ================================
  

 Atom Type    1  (C)
 ==============

 Valence Basis Sets:   9
 -----------------------
   1 S    7.680000
   1 S    5.000000
   2 S    1.280000
   2 S    2.100000
   2 S    4.600000
   2 P    0.820000
   2 P    1.480000
   2 P    2.940000
   3 D    2.200000

 Atom Type    2  (H)
 ==============

 Valence Basis Sets:   4
 -----------------------
   1 S    0.690000
   1 S    0.920000
   1 S    1.580000
   2 P    1.250000


 BAS: List of all Elementary Cartesian Basis Functions
 =====================================================

 The numbering in the list below (to the right of the function characteristics) is referred
 to in print-outs of MO eigenvectors and Mulliken populations in the BAS representation
 (as contrasted to the SFO representation).

 Notes:
 1. The functions are characterized by a polynomial prefactor (powers of x,y,z and r) and
    an exponential decay factor alpha.
 2. Since the basis sets are specific for an atom TYPE, the individual functions occur on
    all atoms of that type.
 3. The word 'Core' in the left margin signals that it is a Core Function (CF) : not a
    degree of freedom in the valence set, but only used to ensure orthogonalization of
    the other valence basis functions on the frozen Core Orbitals.


 (power of) X  Y  Z  R     Alpha  on Atom
            ==========     =====     ==========

 C                                    1    2    3    4    5    6
                                  ---------------------------------------------------------------------------
            0  0  0  0     7.680      1   21   41   61   81  101
            0  0  0  0     5.000      2   22   42   62   82  102
            0  0  0  1     1.280      3   23   43   63   83  103
            0  0  0  1     2.100      4   24   44   64   84  104
            0  0  0  1     4.600      5   25   45   65   85  105
            1  0  0  0     0.820      6   26   46   66   86  106
            0  1  0  0     0.820      7   27   47   67   87  107
            0  0  1  0     0.820      8   28   48   68   88  108
            1  0  0  0     1.480      9   29   49   69   89  109
            0  1  0  0     1.480     10   30   50   70   90  110
            0  0  1  0     1.480     11   31   51   71   91  111
            1  0  0  0     2.940     12   32   52   72   92  112
            0  1  0  0     2.940     13   33   53   73   93  113
            0  0  1  0     2.940     14   34   54   74   94  114
            2  0  0  0     2.200     15   35   55   75   95  115
            1  1  0  0     2.200     16   36   56   76   96  116
            1  0  1  0     2.200     17   37   57   77   97  117
            0  2  0  0     2.200     18   38   58   78   98  118
            0  1  1  0     2.200     19   39   59   79   99  119
            0  0  2  0     2.200     20   40   60   80  100  120

 H                                    7    8    9   10   11   12
                                  ---------------------------------------------------------------------------
            0  0  0  0     0.690    121  127  133  139  145  151
            0  0  0  0     0.920    122  128  134  140  146  152
            0  0  0  0     1.580    123  129  135  141  147  153
            1  0  0  0     1.250    124  130  136  142  148  154
            0  1  0  0     1.250    125  131  137  143  149  155
            0  0  1  0     1.250    126  132  138  144  150  156

 Total number of charge fitting functions (nprimf)       804
 Total number of Cartesian basis functions (naos)        156
 Total number of Cartesian core functions  (ncos)          0

1
 ***************************************************************************************************



                                              ***********************
                                              *  T E C H N I C A L  *
                                              ***********************
  



 =============================================================
 P A R A L L E L I Z A T I O N  and  V E C T O R I Z A T I O N
 =============================================================
  
 Nr of parallel processes:                                6
 Maximum vector length in NumInt loops:                 128



 =====================
 S C F   U P D A T E S
 =====================
  
 Max. nr. of cycles:                               300
 Convergence criterion:                              0.0000010000
   secondary criterion:                              0.0010000000

 Mix parameter (when DIIS does not apply):           0.2000000000
 Mixed ADIIS+SDIIS will be used                  
    Max number of expansion vectors:                10
    Pure ADIIS when Max([F,P]) is above              0.1000000000
    Pure SDIIS when Max([F,P]) is below              0.0010000000
 Automatic ElectronSmearing (in case of problematic SCF convergence) disabled



 =================
 P R E C I S I O N  ***  (General: NumInt, NeglectFunctionTails, ...)  ***
 =================
  

 NumInt:           Target precision:                 4.0000000000
 -------           Initial precision:                4.0000000000
                   Min. precision (optimization):    4.0000000000

 Neglect Functions:          Basis functions:        0.1000000000E-13
 ------------------          Fit functions:          0.1000000000E-13



 ===========================
 L I N E A R   S C A L I N G
 ===========================
  

 Cut-off radii density fit:                        0.1000000000E-07
 Overlap cut-off criterion AO matrix elements:     0.1000000000E-05
 Cut-offs for Coulomb potential and fitted density:0.1000000000E-07
 Cut-off criterion for Coulomb multipole terms:    0.1000000000E-07
 Progressive Convergence parameter:                 0.000000000    
1
 ***************************************************************************************************



                                            ***************************
                                            *  C O M P U T A T I O N  *
                                            ***************************
  

 Number of elements of the density matrix on this node (used, total):      1962     12246



 ===========================================
 Numerical Integration : Fuzzy Cells (Becke)
 ===========================================
  
 Becke grid quality: NORMAL         
  
 Lebedev angular grid order:             min:  11 max:  23
 Nr. of radial points:                   min:  46 max:  52

 Total nr. of points:      75660
 Nr. of blocks:              592
 Block length:               128
 Nr. of dummy points:        116


 Test of Precision of the Numerical Integration Grid
 ===================================================

 Integral of the Total Core Density:                   0.00000000000000



 ========================
 Density Fitting (zlmFit)
 ========================
  
 ZlmFit Fit Quality: NORMAL         
  
 Max L-expansion:                        min:   5 max:   6
 Nr. of radial interpolation points:     min:  36 max:  48



 =====
 S C F  ***  ScaSCF  ***
 =====
  
 Initial density matrix is calculated as sum of fragments

 CYCLE    1
 SCF Error: norm([F,P])=      5.991015826247, max([F,P])=      0.980277669522
 orbitals (Q,E):
 ---------------
 A :12...31          ( 2.00    -0.6583)  ( 2.00    -0.6250)  ( 2.00    -0.5884)  ( 2.00    -0.5691)
                     ( 2.00    -0.5689)  ( 2.00    -0.5031)  ( 2.00    -0.5016)  ( 2.00    -0.5015)
                     ( 2.00    -0.4055)  ( 2.00    -0.4055)  ( 0.00    -0.2151)  ( 0.00    -0.2151)
                     ( 0.00    -0.0768)  ( 0.00    -0.0731)  ( 0.00    -0.0376)  ( 0.00    -0.0375)
                     ( 0.00    -0.0111)  ( 0.00    -0.0111)  ( 0.00     0.0270)  ( 0.00     0.0510)

 CYCLE    2
   MIX coefficients:  0.8000  0.2000
 SCF Error: norm([F,P])=      0.892364931073, max([F,P])=      0.187108710896
 orbitals (Q,E):
 ---------------
 A :12...22          ( 2.00    -0.5946)  ( 2.00    -0.5421)  ( 2.00    -0.5328)  ( 2.00    -0.5022)
                     ( 2.00    -0.5020)  ( 2.00    -0.4366)  ( 2.00    -0.4344)  ( 2.00    -0.4343)
                     ( 2.00    -0.3389)  ( 2.00    -0.3388)  ( 0.00    -0.1501)

 CYCLE    3
  SDIIS (wt  0.000): -1.2669  2.2669
 A-DIIS (wt  1.000):  0.0000  1.0000
  DIIS coefficients:  0.0000  1.0000
 SCF Error: norm([F,P])=      0.521475104703, max([F,P])=      0.102610616717
 orbitals (Q,E):
 ---------------
 A :12...22          ( 2.00    -0.3985)  ( 2.00    -0.3563)  ( 2.00    -0.2966)  ( 2.00    -0.2964)
                     ( 2.00    -0.2951)  ( 2.00    -0.2475)  ( 2.00    -0.2227)  ( 2.00    -0.2227)
                     ( 2.00    -0.1499)  ( 2.00    -0.1498)  ( 0.00     0.0285)

 CYCLE    4
  SDIIS (wt  0.000):  0.1836  0.3522  0.4642
 A-DIIS (wt  1.000): -0.0000  0.6403  0.3597
  DIIS coefficients: -0.0000  0.6403  0.3597
 SCF Error: norm([F,P])=      0.743286452092, max([F,P])=      0.172663352450
 orbitals (Q,E):
 ---------------
 A :12...22          ( 2.00    -0.4673)  ( 2.00    -0.4037)  ( 2.00    -0.3933)  ( 2.00    -0.3709)
                     ( 2.00    -0.3707)  ( 2.00    -0.3293)  ( 2.00    -0.2970)  ( 2.00    -0.2969)
                     ( 2.00    -0.2286)  ( 2.00    -0.2286)  ( 0.00    -0.0404)

 CYCLE    5
  SDIIS (wt  0.902): -0.0172  0.2159  0.0732  0.7280
 A-DIIS (wt  0.098):  0.0000  0.0000  0.0000  1.0000
  DIIS coefficients: -0.0155  0.1947  0.0660  0.7548
 SCF Error: norm([F,P])=      0.076230980744, max([F,P])=      0.010731520121
 orbitals (Q,E):
 ---------------
 A :12...22          ( 2.00    -0.4793)  ( 2.00    -0.4187)  ( 2.00    -0.4084)  ( 2.00    -0.3828)
                     ( 2.00    -0.3825)  ( 2.00    -0.3380)  ( 2.00    -0.3110)  ( 2.00    -0.3109)
                     ( 2.00    -0.2384)  ( 2.00    -0.2383)  ( 0.00    -0.0510)

 CYCLE    6
  SDIIS (wt  0.993): -0.0029  0.0315  0.0082  0.1926  0.7705
 A-DIIS (wt  0.007):  0.0000  0.0000  0.0000  0.0000  1.0000
  DIIS coefficients: -0.0028  0.0313  0.0082  0.1913  0.7721
 SCF Error: norm([F,P])=      0.010711518192, max([F,P])=      0.001697500147
 orbitals (Q,E):
 ---------------
 A :12...22          ( 2.00    -0.4790)  ( 2.00    -0.4180)  ( 2.00    -0.4073)  ( 2.00    -0.3826)
                     ( 2.00    -0.3824)  ( 2.00    -0.3374)  ( 2.00    -0.3104)  ( 2.00    -0.3103)
                     ( 2.00    -0.2377)  ( 2.00    -0.2377)  ( 0.00    -0.0502)

 CYCLE    7
  SDIIS (wt  1.000):  0.0009  0.0020  0.0002  0.0236  0.1241  0.8492
  DIIS coefficients:  0.0009  0.0020  0.0002  0.0236  0.1241  0.8492
 SCF Error: norm([F,P])=      0.001138062099, max([F,P])=      0.000275182604
 orbitals (Q,E):
 ---------------
 A :12...22          ( 2.00    -0.4791)  ( 2.00    -0.4181)  ( 2.00    -0.4075)  ( 2.00    -0.3827)
                     ( 2.00    -0.3824)  ( 2.00    -0.3376)  ( 2.00    -0.3105)  ( 2.00    -0.3104)
                     ( 2.00    -0.2379)  ( 2.00    -0.2378)  ( 0.00    -0.0504)

 CYCLE    8
  SDIIS (wt  1.000):  0.0005  0.0005  0.0000  0.0096  0.0538  0.4332  0.5023
  DIIS coefficients:  0.0005  0.0005  0.0000  0.0096  0.0538  0.4332  0.5023
 SCF Error: norm([F,P])=      0.000344275309, max([F,P])=      0.000100435495
 orbitals (Q,E):
 ---------------
 A :12...22          ( 2.00    -0.4791)  ( 2.00    -0.4181)  ( 2.00    -0.4075)  ( 2.00    -0.3827)
                     ( 2.00    -0.3825)  ( 2.00    -0.3376)  ( 2.00    -0.3105)  ( 2.00    -0.3104)
                     ( 2.00    -0.2379)  ( 2.00    -0.2378)  ( 0.00    -0.0504)

 CYCLE    9
  SDIIS (wt  1.000):  0.0001 -0.0002 -0.0000 -0.0002  0.0005  0.0255  0.3279  0.6463
  DIIS coefficients:  0.0001 -0.0002 -0.0000 -0.0002  0.0005  0.0255  0.3279  0.6463
 SCF Error: norm([F,P])=      0.000166328613, max([F,P])=      0.000053644148
 orbitals (Q,E):
 ---------------
 A :12...22          ( 2.00    -0.4791)  ( 2.00    -0.4181)  ( 2.00    -0.4076)  ( 2.00    -0.3827)
                     ( 2.00    -0.3825)  ( 2.00    -0.3376)  ( 2.00    -0.3105)  ( 2.00    -0.3105)
                     ( 2.00    -0.2379)  ( 2.00    -0.2378)  ( 0.00    -0.0504)

 CYCLE   10
  SDIIS (wt  1.000):  0.0001 -0.0001 -0.0000 -0.0003 -0.0006  0.0102  0.2278  0.4684  0.2946
  DIIS coefficients:  0.0001 -0.0001 -0.0000 -0.0003 -0.0006  0.0102  0.2278  0.4684  0.2946
 SCF Error: norm([F,P])=      0.000056132112, max([F,P])=      0.000016098988
 orbitals (Q,E):
 ---------------
 A :12...22          ( 2.00    -0.4791)  ( 2.00    -0.4181)  ( 2.00    -0.4076)  ( 2.00    -0.3827)
                     ( 2.00    -0.3825)  ( 2.00    -0.3376)  ( 2.00    -0.3105)  ( 2.00    -0.3105)
                     ( 2.00    -0.2379)  ( 2.00    -0.2378)  ( 0.00    -0.0504)

 CYCLE   11
  SDIIS (wt  1.000):  0.0000 -0.0000 -0.0000 -0.0001 -0.0001  0.0013  0.0360  0.0755  0.0801  0.8072
  DIIS coefficients:  0.0000 -0.0000 -0.0000 -0.0001 -0.0001  0.0013  0.0360  0.0755  0.0801  0.8072
 SCF Error: norm([F,P])=      0.000003367978, max([F,P])=      0.000000759748
 orbitals (Q,E):
 ---------------
 A :12...22          ( 2.00    -0.4791)  ( 2.00    -0.4181)  ( 2.00    -0.4076)  ( 2.00    -0.3827)
                     ( 2.00    -0.3825)  ( 2.00    -0.3376)  ( 2.00    -0.3105)  ( 2.00    -0.3105)
                     ( 2.00    -0.2379)  ( 2.00    -0.2378)  ( 0.00    -0.0504)

 SCF CONVERGED

 CYCLE   12
1
 ***************************************************************************************************



                                                *******************
                                                *  R E S U L T S  *
                                                *******************
  
 *** Using FIT density in Focky
  SDIIS (wt  1.000): -0.0000 -0.0000  0.0000 -0.0000 -0.0001 -0.0022 -0.0041  0.0086  0.2759  0.7218
  DIIS coefficients: -0.0000 -0.0000  0.0000 -0.0000 -0.0001 -0.0022 -0.0041  0.0086  0.2759  0.7218
 SCF Error: norm([F,P])=      0.000000868446, max([F,P])=      0.000000114954

 Orbital Energies, per Irrep and Spin:
 ======================================
                        Occup              E (au)              E (eV)       Diff (eV) with prev. cycle
                        -----      --------------------        ------       --------------------------
 A
              12        2.000     -0.47913226440064E+00       -13.038              -1.96E-07
              13        2.000     -0.41810800483397E+00       -11.377               8.45E-08
              14        2.000     -0.40755056626107E+00       -11.090              -4.81E-07
              15        2.000     -0.38269772993606E+00       -10.414              -2.89E-07
              16        2.000     -0.38247359498513E+00       -10.408              -1.79E-07
              17        2.000     -0.33758033712651E+00        -9.186              -5.30E-07
              18        2.000     -0.31053256160940E+00        -8.450              -2.06E-07
              19        2.000     -0.31045346809632E+00        -8.448              -1.99E-07
              20        2.000     -0.23788351950396E+00        -6.473              -5.35E-07
              21        2.000     -0.23782529028151E+00        -6.472              -4.19E-07
              22        0.000     -0.50379744342504E-01        -1.371
              23        0.000     -0.50328368680437E-01        -1.370
              24        0.000      0.20344753334612E-02         0.055
              25        0.000      0.27837232613335E-01         0.757
              26        0.000      0.27860848420153E-01         0.758
              27        0.000      0.60712361837854E-01         1.652
              28        0.000      0.60761905440286E-01         1.653
              29        0.000      0.90662970645658E-01         2.467
              30        0.000      0.96118084649771E-01         2.616
              31        0.000      0.14212189112283E+00         3.867
  
 HOMO :       21 A                -0.23782529028151E+00
 LUMO :       22 A                -0.50379744342504E-01
  


 All Electron Calculation, thus no Orbital Energies of the Core Orbitals are calculated


 Fit test: (difference of exact and fit density, squared integrated, result summed over spins)
         Sum-of-Fragments:                             0.00000000048365
         Orthogonalized Fragments:                     0.00013300481909
         SCF:                                          0.00048712529706



 ==========================
 Electron Density at Nuclei
 ==========================
  
 The electron density is calculated at points on a small sphere around the center of a nucleus.
 The printed electron density is the average electron density on these points.
 The radius of the sphere is the printed approximate finite nuclear radius.

         Atom        Nuclear Radius (Angstrom)             Electron Density (a.u.)
         ----        -------------------------             -----------------------
     1)   C                 0.0000320678                              126.51444
     2)   C                 0.0000320678                              126.51572
     3)   C                 0.0000320678                              126.51467
     4)   C                 0.0000320678                              126.51442
     5)   C                 0.0000320678                              126.51572
     6)   C                 0.0000320678                              126.51462
     7)   H                 0.0000181514                                0.49874
     8)   H                 0.0000181514                                0.49869
     9)   H                 0.0000181514                                0.49864
    10)   H                 0.0000181514                                0.49874
    11)   H                 0.0000181514                                0.49864
    12)   H                 0.0000181514                                0.49864



 =======================================
 M U L L I K E N   P O P U L A T I O N S
 =======================================
  
 The survey below gives for each atom:
 a) the total charge (Z minus electrons)
 b) the net spin polarization (nr of electrons spin-A minus spin-B)
 c) for each spin the atomic electron valence density (integrated) per L-value.

 Atom              Charge    Spin density          S         P         D         F
 ----              ------    ------------       ------    ------    ------    ------
 1 C               0.1753                       3.0650    2.6987    0.0610    0.0000
 2 C               0.1757                       3.0649    2.6984    0.0610    0.0000
 3 C               0.1756                       3.0650    2.6985    0.0610    0.0000
 4 C               0.1754                       3.0649    2.6987    0.0610    0.0000
 5 C               0.1757                       3.0649    2.6984    0.0610    0.0000
 6 C               0.1755                       3.0650    2.6986    0.0610    0.0000
 7 H              -0.1759                       1.1045    0.0715    0.0000    0.0000
 8 H              -0.1757                       1.1043    0.0714    0.0000    0.0000
 9 H              -0.1751                       1.1037    0.0714    0.0000    0.0000
 10 H             -0.1759                       1.1045    0.0714    0.0000    0.0000
 11 H             -0.1756                       1.1042    0.0714    0.0000    0.0000
 12 H             -0.1750                       1.1037    0.0714    0.0000    0.0000

 Populations of individual BAS functions
 ----------------------------------------
 1 C            0.4869  1.5144  0.2298  0.8872 -0.0535 -0.1033  0.1475 -0.2378  0.8054  0.6780
                0.8823  0.2001  0.1366  0.1899  0.0268  0.0122  0.0174 -0.0175  0.0040  0.0181
 2 C            0.4870  1.5144  0.2297  0.8874 -0.0535 -0.2019  0.1472 -0.1402  0.8617  0.6781
                0.8268  0.1922  0.1366  0.1977  0.0179  0.0062  0.0221 -0.0176  0.0100  0.0223
 3 C            0.4870  1.5144  0.2298  0.8873 -0.0535 -0.2067  0.1474 -0.1350  0.8644  0.6781
                0.8238  0.1918  0.1366  0.1981  0.0178  0.0059  0.0217 -0.0175  0.0103  0.0228
 4 C            0.4869  1.5144  0.2298  0.8872 -0.0535 -0.1034  0.1475 -0.2378  0.8055  0.6780
                0.8823  0.2001  0.1366  0.1898  0.0268  0.0122  0.0174 -0.0175  0.0040  0.0181
 5 C            0.4870  1.5144  0.2297  0.8874 -0.0535 -0.2030  0.1472 -0.1390  0.8625  0.6781
                0.8260  0.1930  0.1366  0.1969  0.0183  0.0063  0.0220 -0.0175  0.0100  0.0221
 6 C            0.4870  1.5144  0.2299  0.8873 -0.0535 -0.2078  0.1474 -0.1338  0.8650  0.6781
                0.8231  0.1926  0.1366  0.1973  0.0181  0.0060  0.0215 -0.0175  0.0103  0.0226
 7 H            0.2098  0.5759  0.3188  0.0288  0.0217  0.0209
 8 H            0.2094  0.5761  0.3188  0.0294  0.0217  0.0203
 9 H            0.2086  0.5762  0.3189  0.0162  0.0217  0.0334
 10 H           0.2097  0.5759  0.3188  0.0289  0.0217  0.0208
 11 H           0.2093  0.5762  0.3188  0.0295  0.0217  0.0202
 12 H           0.2085  0.5762  0.3189  0.0162  0.0217  0.0334

 Gross Charges per Atom (Z minus electrons)
 ==========================================
             0.1753    0.1757    0.1756    0.1754    0.1757    0.1755   -0.1759   -0.1757   -0.1751   -0.1759
            -0.1756   -0.1750
 Net Total:  0.00000000


 Atom-Atom Population Matrix (off-diagonal elements not doubled)
 ===============================================================

     1 :     4.5229
     2 :     0.5398    4.5222
     3 :    -0.0106    0.5436    4.5223
     4 :    -0.0557   -0.0106    0.5399    4.5229
     5 :    -0.0106   -0.0555   -0.0107    0.5436    4.5223
     6 :     0.5437   -0.0107   -0.0555   -0.0106    0.5398    4.5224
     7 :    -0.0540    0.3939   -0.0532    0.0022    0.0041    0.0021    0.9822
     8 :     0.0022   -0.0532    0.3939   -0.0540    0.0021    0.0041   -0.0475    0.9819
     9 :     0.0041    0.0021   -0.0538    0.3939   -0.0530    0.0022   -0.0038   -0.0477    0.9808
    10 :     0.0021    0.0041    0.0022   -0.0533    0.3939   -0.0538    0.0015   -0.0038   -0.0474    0.9821
    11 :    -0.0533    0.0022    0.0041    0.0021   -0.0538    0.3939   -0.0038    0.0015   -0.0038   -0.0477
             0.9818
    12 :     0.3939   -0.0537    0.0021    0.0041    0.0022   -0.0531   -0.0477   -0.0038    0.0016   -0.0038
            -0.0474    0.9808



 =================================================
 H I R S H F E L D   C H A R G E   A N A L Y S I S
 =================================================
  
 For each fragment: the (numerical) integral of rho(scf) * rho(fragment)/rho(sum-of-fragments)
 (nuclear charges are included, electrons are counted negative)

 The fragments and their ordering are defined in the early G E O M E T R Y output section.
 If you use single-atom fragments, this usually implies that all atoms of the same
 chemical type are grouped together. This may not be the order in which you listed them
 in the input file!

    1  C                        -0.0463
    2  C                        -0.0463
    3  C                        -0.0463
    4  C                        -0.0463
    5  C                        -0.0463
    6  C                        -0.0463
    7  H                         0.0463
    8  H                         0.0463
    9  H                         0.0462
   10  H                         0.0463
   11  H                         0.0463
   12  H                         0.0462

 Sum of these charges (accuracy NumInt/Tails) =          -0.00005967



 =============================
 V O R O N O I   C H A R G E S
 =============================
  
 For each atom: the (numerical) integral of the total electronic charge density in its Voronoi cell,
 i.e. the region of space that is closer to that atom than to any other atom.
 (cf. Wigner-Seitz cells in crystals)

 Within the Voronoi cell the subintegrals over the atomic sphere and the remaining part are evaluated
 separately to give the numbers of electrons (negative charge) in these regions.
 The net total charge in the cell (including the nuclear charge) is also given.

 Values are provided for
    a) the Initial (sum-of-fragments) density
    b) the Orthogonalized-Fragments density
    c) the SCF density
    d) the Voronoi Deformation Density (VDD): the difference SCF-Initial for the complete atomic cell


  Atom                Initial                    OrthFrag                   SCF
             Sphere RestCell NetTotal   Sphere RestCell NetTotal   Sphere RestCell NetTotal      VDD
 -----       ------------------------   ------------------------   ------------------------    -----
    1 C      -2.269   -3.189    0.543   -2.452   -3.139    0.409   -2.303   -3.209    0.488   -0.055
    2 C      -2.269   -3.191    0.541   -2.452   -3.137    0.410   -2.303   -3.208    0.489   -0.051
    3 C      -2.269   -3.186    0.545   -2.452   -3.140    0.408   -2.303   -3.209    0.488   -0.057
    4 C      -2.269   -3.185    0.547   -2.452   -3.136    0.412   -2.303   -3.206    0.491   -0.056
    5 C      -2.269   -3.189    0.542   -2.452   -3.137    0.411   -2.303   -3.207    0.490   -0.052
    6 C      -2.269   -3.185    0.547   -2.452   -3.138    0.410   -2.303   -3.207    0.490   -0.057
    7 H      -0.075   -1.473   -0.548   -0.096   -1.317   -0.413   -0.109   -1.384   -0.493    0.055
    8 H      -0.075   -1.469   -0.543   -0.096   -1.312   -0.407   -0.109   -1.378   -0.487    0.056
    9 H      -0.075   -1.467   -0.542   -0.096   -1.314   -0.409   -0.109   -1.380   -0.489    0.053
   10 H      -0.075   -1.474   -0.549   -0.096   -1.318   -0.414   -0.109   -1.385   -0.493    0.055
   11 H      -0.075   -1.469   -0.544   -0.096   -1.314   -0.409   -0.109   -1.380   -0.489    0.055
   12 H      -0.075   -1.464   -0.539   -0.096   -1.311   -0.407   -0.109   -1.377   -0.486    0.053
 ---------------------------------------------------------------------------------------------------
 Total NetCharge:              -0.000                     -0.000                     -0.000    0.000
 (accuracy NumInt/Tails)

 Remark: the 'NetTotal' Voronoi charges often do not match the Mulliken and/or Hirshfeld charges very
 well. This is caused by the fact that chemically different atoms are not treated in accordance with
 their relative sizes. (Voronoi cells are defined by boundary planes halfway between the atoms.)
 However, the CHANGES in charge, comparing 'Initial' to 'SCF' for instance, do give a fair indication
 of the flow of charge caused by the relaxation from sum-of-fragments to self-consistency.

 Warning: the absolute accuracy of the VDD charges obtained using the Fuzzy Cells (Becke) integration
 scheme is much poorer than the one obtained with an 'equivalent' Voronoi integration grid. 



 =================================================================
 M U L T I P O L E   D E R I V E D   C H A R G E   A N A L Y S I S
 =================================================================

 This charge analysis uses the atomic multipoles (obtained from the fitted density) up to some level X,
 and reconstructs these multipoles exactly (up to level X) by distributing charges over all atoms.
 This is achieved by using Lagrange multipliers and a weight function to keep the multipoles local.

 Dummy atoms can be included (by setting INCDUM in MDC-block to 1) to obtain a fractional charge.
 This is generally useful and necessary only for small symmetrical molecules, when there are not
 enough degrees of freedom to reconstruct the multipoles.

 Since the atomic multipoles are reconstructed up to level X,
 the molecular multipoles are represented also up to level X.
 The recommended level is to reconstruct up to quadrupole : -> MDC-q charges.

 See: M. Swart, P.Th. van Duijnen, J.G. Snijders, J.Comput.Chem., (2001), p. 79-88.

 ------------------------------------------------------------- 
 Atomic electronic multipole moments from SCF equations (a.u.)
 ------------------------------------------------------------- 

   atom        charge        dip-x     dip-y     dip-z      quad-xx   quad-xy   quad-xz   quad-yy   quad-yz   quad-zz
 --------------------------------------------------------------------------------------------------------------------
    1 C      0.060862     0.001080  0.000000 -0.047118     0.468756 -0.000000  0.001631 -0.996611 -0.000000  0.527856
    2 C      0.060460    -0.042112  0.000000 -0.025525     0.505525 -0.000000  0.016014 -0.993832  0.000000  0.488306
    3 C      0.060597    -0.042513 -0.000000  0.023328     0.509266 -0.000000 -0.016301 -0.994879  0.000000  0.485613
    4 C      0.060864    -0.000907  0.000000  0.047130     0.469066 -0.000000 -0.003174 -0.996619  0.000000  0.527553
    5 C      0.060450     0.042013  0.000000  0.025705     0.511936 -0.000000  0.013780 -0.993800  0.000000  0.481864
    6 C      0.060579     0.042391  0.000000 -0.023478     0.515368 -0.000000 -0.013676 -0.994844  0.000000  0.479476
    7 H     -0.060626    -0.019291  0.000000 -0.012135     0.159570  0.000000  0.080755 -0.195358 -0.000000  0.035788
    8 H     -0.060616    -0.019680  0.000000  0.011241     0.169965  0.000000 -0.076900 -0.195659  0.000000  0.025694
    9 H     -0.060673    -0.000811  0.000000  0.022622    -0.038526  0.000000 -0.004410 -0.194888 -0.000000  0.233414
   10 H     -0.060622     0.019611  0.000000  0.011588     0.161013 -0.000000  0.080268 -0.195375  0.000000  0.034361
   11 H     -0.060606     0.019998  0.000000 -0.010678     0.171345  0.000000 -0.076324 -0.195671  0.000000  0.024326
   12 H     -0.060669     0.000170  0.000000 -0.022633    -0.038600  0.000000 -0.003338 -0.194887  0.000000  0.233487

 --------------------------------------- 
 Multipole derived atomic charges (a.u.)
 --------------------------------------- 

 The MDC-m charges are just the Monopole terms in the multipole expansion, while for the MDC-d charges
 also the Dipoles are reconstructed. The usually preferred charges are the MDC-q charges.
 These reconstruct the Monopoles, Dipoles and Quadrupoles (both atomic AND molecular).

        Atom    Level:     MDC-m        MDC-d        MDC-q
 ---------------------------------------------------------
     1     C            0.060862     0.034924    -0.125994
     2     C            0.060460     0.034503    -0.127897
     3     C            0.060597     0.034655    -0.127679
     4     C            0.060864     0.034925    -0.125962
     5     C            0.060450     0.034496    -0.128204
     6     C            0.060579     0.034636    -0.127980
     7     H           -0.060626    -0.034361     0.127623
     8     H           -0.060616    -0.034629     0.127373
     9     H           -0.060673    -0.035078     0.126695
    10     H           -0.060622    -0.034359     0.127788
    11     H           -0.060606    -0.034632     0.127528
    12     H           -0.060669    -0.035080     0.126709

 ------------------------------------------------ 
 Average absolute deviations in atomic multipoles
 ------------------------------------------------ 

 Stated here are the average differences between the atomic multipoles
 and the reconstructed atomic multipoles (from the distributed charges).
 If these values are not zero, this means there are not enough degrees of freedom,
 to be able to reconstruct the atomic multipoles. (This usually happens only
 for small and/or highly symmetric molecules). If this is the case, one could add
 dummy atoms as extra point charges (and setting INCDUM in MDC-block to 1).

 Level:                                 MDC-d        MDC-q
 ---------------------------------------------------------
 Charge   (a.u.)                       0.0000       0.0000
 Dipole   (Debye)                      0.0000       0.0000
 Quad.    (a.u.)                       0.2134       0.0000

 --------------------------------------- 
 Represented molecular multipole moments
 --------------------------------------- 

 Given here are the Molecular multipole moments from the atomic charges, and from the Fit Density.
 Note that the atomic charges represent the latter, NOT the ones from the Exact density.

            Q (a.u.)             Dipole moment (Debye)                                          Quadrupole moment (a.u.)
                                 x         y         z              xx        xy        xz        yy        yz        zz
------------------------------------------------------------------------------------------------------------------------
MDC-m         0.0000       -0.0000    0.0000   -0.0000         -1.3796   -0.0001   -0.0014    2.7586   -0.0001   -1.3790
MDC-d         0.0000       -0.0002    0.0000    0.0001         -0.7729   -0.0007    0.0073    1.5782    0.0004   -0.8053
MDC-q         0.0000       -0.0002    0.0000    0.0001          2.9008   -0.0007    0.0052   -5.7909    0.0004    2.8901
 
Fit.Dens.     0.0000       -0.0002    0.0000    0.0001          2.9008   -0.0007    0.0043   -5.7909    0.0004    2.8901



 =============
 Dipole Moment  ***  (Debye)  ***
 =============
  
 Vector   :        -0.00002452     -0.00000013      0.00001472
 Magnitude:         0.00002860

 This molecular dipole moment is calculated with analytic integration



 =========================================
 Quadrupole Moment (Buckingham convention)  ***  (a.u.)  ***
 =========================================
  
      quad-xx        quad-xy        quad-xz        quad-yy        quad-yz        quad-zz
      2.91221635    -0.00010922     0.00259142    -5.81922805     0.00006556     2.90701170

 This molecular quadrupole moment is calculated with analytic integration
1



 =======================================================
 S F O   P O P U L A T I O N S ,   M O   A N A L Y S I S
 =======================================================
  
 A Mulliken population analysis is performed on (input-)selected MOs. All populations refer to SFOs.
 BAS populations may have been printed directly after the SCF part.


                                       === A ===


 SFO contributions (%) per orbital
 (multiplication by the orbital occupation yields the SFO Gross Populations)

 Orb.:       12     13     14     15     16     17     18     19     20     21     22     23     24     25
 occup:     2.00   2.00   2.00   2.00   2.00   2.00   2.00   2.00   2.00   2.00   0.00   0.00   0.00   0.00
 CF+SFO     ----   ----   ----   ----   ----   ----   ----   ----   ----   ----   ----   ----   ----   ----
 ------
      2:    0.24   4.04   0.00   0.00   0.03  -0.00  -0.00  -0.06   0.00   0.00  -0.00   0.00  -0.24   0.00
      3:   -0.08   0.11   0.00  -0.00  -0.18   0.00  -0.00  -0.02   0.00   0.00   0.00   0.00  -2.69  -0.10
      6:    0.00   0.00  14.44   0.43  -0.00  -0.00   9.02   0.17   0.00  -0.00  -0.00   0.00   0.00  -1.75
      7:    0.00   0.00   2.00   0.66   0.01   0.00   3.00   0.06   0.00  -0.00  -0.00   0.00  -0.00  -8.16
      9:    0.00  -0.00   0.00   0.00   0.00  17.22  -0.00   0.00   0.27  31.49   0.49  34.01  -0.00   0.00
     10:    0.00   0.00  -0.00   0.00   0.00  -0.98  -0.00   0.00   0.00   0.11  -0.05  -3.80   0.00   0.00
     12:   10.70   2.58   0.00   0.27  17.53   0.00   0.09   5.77  -0.00  -0.00  -0.00  -0.00   0.73   0.14
     13:    0.23   0.28   0.00   0.01   1.25   0.00   0.03   1.43  -0.00  -0.00   0.00  -0.00  -0.51  -1.56
     17:   -0.00   0.00   0.00   0.00  -0.00   0.00  -0.00   0.00   0.60   0.01   1.12   0.02  -0.00  -0.00
     21:    0.24   4.02   0.00   0.02   0.01   0.00  -0.05  -0.01  -0.00   0.00  -0.00  -0.00  -0.24   0.01
     22:   -0.08   0.11   0.00  -0.16  -0.03   0.00  -0.02  -0.00  -0.00  -0.00   0.00  -0.00  -2.69  -0.22
     25:    7.80   1.92   3.92  10.12   2.86   0.00   6.59   0.29  -0.00   0.00   0.00   0.00   0.52  -0.71
     26:    0.17   0.21   0.53   0.23   0.82  -0.00   2.02  -0.10  -0.00  -0.00  -0.00  -0.00  -0.37  -8.94
     28:    0.00   0.00   0.00  -0.00  -0.00  17.22   0.00  -0.00  26.43   5.33  22.38  12.12   0.00   0.00
     29:    0.00  -0.00   0.00  -0.00  -0.00  -0.98   0.00  -0.00   0.10   0.02  -2.49  -1.37   0.00   0.00
     31:    2.90   0.72  10.55   5.21  -0.07  -0.00  -0.12   8.26  -0.00  -0.00   0.00  -0.00   0.20  -0.35
     32:    0.07   0.08   1.47   0.97  -0.10  -0.00  -0.29   2.88   0.00   0.00  -0.00  -0.00  -0.14  -1.04
     40:    0.24   4.03   0.00   0.01   0.02   0.00  -0.04  -0.02   0.00   0.00  -0.00   0.00  -0.24   0.04
     41:   -0.08   0.11   0.00  -0.11  -0.07   0.00  -0.01  -0.01   0.00   0.00  -0.00   0.00  -2.69  -0.60
     44:    8.19   2.01   3.38   7.30   6.34   0.00   6.92  -0.17  -0.00  -0.00   0.00   0.00   0.55   0.45
     45:    0.18   0.22   0.46  -0.10   1.17  -0.00   2.21  -0.35  -0.00  -0.00   0.00  -0.00  -0.39  -9.41
     47:   -0.00  -0.00  -0.00   0.00   0.00  17.22  -0.00   0.00  21.14  10.62  29.15   5.35   0.00   0.00
     48:   -0.00   0.00   0.00   0.00   0.00  -0.98  -0.00   0.00   0.08   0.04  -3.25  -0.61  -0.00  -0.00
     50:    2.51   0.62  11.09   4.10   0.41   0.00   0.23   8.04   0.00   0.00   0.00  -0.00   0.17   0.26
     51:    0.06   0.06   1.54   1.17  -0.32  -0.00  -0.16   2.81  -0.00   0.00   0.00   0.00  -0.12  -1.64
     59:    0.24   4.04   0.00  -0.00   0.03  -0.00  -0.00  -0.06  -0.00  -0.00  -0.00   0.00  -0.24   0.01
     60:   -0.08   0.11   0.00  -0.00  -0.18   0.00  -0.00  -0.02  -0.00  -0.00  -0.00   0.00  -2.69  -0.10
     63:    0.01   0.00  14.44   0.44  -0.00  -0.00   9.02   0.16  -0.00   0.00   0.00  -0.00   0.00  -1.76
     64:    0.00   0.00   2.00   0.67  -0.00   0.00   3.00   0.05  -0.00   0.00   0.00  -0.00  -0.00  -8.19
     66:    0.00   0.00   0.00  -0.00   0.00  17.22   0.00   0.00   0.33  31.44   0.42  34.08   0.00   0.00
     67:    0.00   0.00   0.00  -0.00   0.00  -0.98   0.00  -0.00   0.00   0.11  -0.05  -3.80   0.00   0.00
     69:   10.70   2.58   0.01   0.34  17.45   0.00   0.15   5.72   0.00  -0.00  -0.00  -0.00   0.73   0.14
     70:    0.23   0.28   0.00   0.02   1.24  -0.00   0.04   1.43  -0.00  -0.00   0.00  -0.00  -0.51  -1.67
     74:    0.00   0.00   0.00  -0.00  -0.00   0.00   0.00   0.00   0.61   0.00   1.12   0.02   0.00   0.00
     78:    0.24   4.02   0.00   0.03   0.00  -0.00  -0.05  -0.01  -0.00   0.00   0.00  -0.00  -0.24   0.02
     79:   -0.08   0.11   0.00  -0.16  -0.03  -0.00  -0.02  -0.00  -0.00   0.00   0.00  -0.00  -2.69  -0.21
     82:    7.84   1.95   3.84  10.12   3.04   0.00   6.41   0.20  -0.00  -0.00   0.00   0.00   0.53  -0.76
     83:    0.17   0.21   0.54   0.25   0.90   0.00   1.98  -0.11  -0.00  -0.00  -0.00   0.00  -0.37  -9.13
     85:   -0.00  -0.00  -0.00   0.00   0.00  17.22  -0.00  -0.00  26.23   5.54  22.11  12.39   0.00  -0.00
     86:    0.00  -0.00  -0.00   0.00   0.00  -0.98  -0.00   0.00   0.09   0.02  -2.48  -1.37   0.00   0.00
     88:    2.86   0.69  10.64   5.03  -0.07  -0.00  -0.12   8.53   0.00  -0.00  -0.00  -0.00   0.19  -0.34
     89:    0.06   0.07   1.46   0.90  -0.12   0.00  -0.28   2.93   0.00   0.00  -0.00   0.00  -0.13  -1.02
     97:    0.24   4.03   0.00   0.02   0.01  -0.00  -0.04  -0.02   0.00   0.00   0.00   0.00  -0.24   0.04
     98:   -0.08   0.11   0.00  -0.11  -0.07   0.00  -0.01  -0.01   0.00   0.00  -0.00   0.00  -2.69  -0.60
    101:    8.22   2.04   3.30   7.21   6.60  -0.00   6.66  -0.16  -0.00   0.00  -0.00  -0.00   0.56   0.42
    102:    0.18   0.22   0.47  -0.09   1.26  -0.00   2.16  -0.35   0.00   0.00  -0.00  -0.00  -0.39  -9.46
    104:    0.00   0.00  -0.00  -0.00   0.00  17.22   0.00  -0.00  20.89  10.87  28.94   5.56   0.00  -0.00
    105:    0.00   0.00   0.00  -0.00   0.00  -0.98   0.00  -0.00   0.07   0.04  -3.24  -0.61  -0.00  -0.00
    107:    2.47   0.59  11.17   3.93   0.40   0.00   0.26   8.27  -0.00   0.00  -0.00   0.00   0.16   0.29
    108:    0.05   0.06   1.53   1.09  -0.33  -0.00  -0.15   2.86   0.00  -0.00   0.00   0.00  -0.12  -1.62
    115:    5.54   9.20   0.00  11.18   1.74  -0.00  11.32   2.03   0.00   0.00   0.00   0.00   7.80   7.65
    116:   -0.02   0.16  -0.00   0.13   0.02   0.00  -0.16  -0.03   0.00   0.00   0.00   0.00  11.27  11.38
    121:    5.54   9.17   0.00   8.28   4.68   0.00   8.71   4.64   0.00   0.00  -0.00   0.00   7.81  21.70
    122:   -0.02   0.16  -0.00   0.10   0.06  -0.00  -0.13  -0.07   0.00  -0.00  -0.00   0.00  11.29  32.24
    125:    0.00   0.00  -0.00  -0.00   0.00   0.25   0.00  -0.00   0.55   0.28   1.16   0.21  -0.00  -0.00
    127:    5.53   9.09   0.00   0.28  12.73   0.00   0.20  13.16   0.00   0.00  -0.00   0.00   7.81   3.58
    128:   -0.02   0.16  -0.00   0.00   0.16   0.00  -0.00  -0.19   0.00   0.00  -0.00   0.00  11.28   5.32
    131:   -0.00  -0.00  -0.00   0.00   0.00   0.25   0.00   0.00   0.01   0.82   0.02   1.35  -0.00  -0.00
    133:    5.54   9.20  -0.00  10.97   1.95  -0.00  11.16   2.19   0.00   0.00   0.00   0.00   7.80   7.81
    134:   -0.02   0.16  -0.00   0.13   0.02   0.00  -0.17  -0.03  -0.00   0.00   0.00   0.00  11.27  11.60
    139:    5.54   9.17  -0.00   7.99   4.97   0.00   8.51   4.85   0.00  -0.00   0.00   0.00   7.81  21.74
    140:   -0.02   0.16  -0.00   0.10   0.06  -0.00  -0.13  -0.07  -0.00  -0.00   0.00   0.00  11.29  32.29
    143:   -0.00  -0.00   0.00   0.00   0.00   0.25  -0.00   0.00   0.55   0.28   1.15   0.22   0.00  -0.00
    145:    5.53   9.09  -0.00   0.20  12.82  -0.00   0.15  13.21   0.00   0.00  -0.00   0.00   7.81   3.46
    146:   -0.02   0.16  -0.00   0.00   0.16  -0.00  -0.00  -0.19  -0.00   0.00  -0.00   0.00  11.27   5.15
    149:    0.00  -0.00  -0.00  -0.00  -0.00   0.25   0.00  -0.00   0.01   0.82   0.02   1.35   0.00   0.00


 Summation over all MOs, multiplied by occupation: Total SFO Gross Populations in this Irrep
 ===========================================================================================

     2.00    1.07   -0.01   -0.00   -0.00    0.84    0.07   -0.01    0.98   -0.02   -0.00    0.81
     0.03   -0.01    0.02    0.01    0.01    0.02    0.00    2.00    1.07   -0.01   -0.00   -0.00
     0.82    0.04   -0.01    0.98   -0.02   -0.00    0.83    0.06   -0.01    0.02    0.01    0.01
     0.02    0.01    2.00    1.07   -0.01   -0.00   -0.00    0.82    0.04   -0.01    0.98   -0.02
    -0.00    0.83    0.06   -0.01    0.02    0.01    0.01    0.02    0.01    2.00    1.07   -0.01
    -0.00   -0.00    0.84    0.07   -0.01    0.98   -0.02   -0.00    0.81    0.03   -0.01    0.02
     0.01    0.01    0.02    0.00    2.00    1.07   -0.01   -0.00   -0.00    0.82    0.04   -0.01
     0.98   -0.02   -0.00    0.83    0.06   -0.01    0.02    0.01    0.01    0.02    0.01    2.00
     1.07   -0.01   -0.00   -0.00    0.82    0.04   -0.01    0.98   -0.02   -0.00    0.83    0.06
    -0.01    0.02    0.01    0.01    0.02    0.01    1.11   -0.00   -0.00    0.03    0.02    0.02
     1.11   -0.00   -0.00    0.03    0.02    0.02    1.11   -0.00   -0.00    0.02    0.02    0.03
     1.11   -0.00   -0.00    0.03    0.02    0.02    1.11   -0.00   -0.00    0.03    0.02    0.02
     1.11   -0.00   -0.00    0.02    0.02    0.03



 List of all MOs, ordered by energy, with the most significant SFO gross populations
 ===================================================================================

 Each percentage contribution in the table below corresponds to the indicated SFO.
 In general, a SFO may be a linear combination of several Fragment Orbitals on the same,
 or on symmetry-related Fragments. Only the first 'member' of such a combination is
 specified here. A full definition of all SFOs is given in an earlier part of the output.
 The numbering of the SFOs in this table does NOT include the Core Orbitals, and starts
 from one for each symmetry representation, as in the SFO definition list earlier.

       E(eV)  Occ       MO           %     SFO (first member)   E(eV)  Occ   Fragment
 -------------------------------------------------------------------------------------

     -21.394  2.00     7 A         14.60%     2 S             -13.876  2.00     2 C
                                   14.60%     2 S             -13.876  2.00     4 C
                                   14.60%     2 S             -13.876  2.00     5 C
                                   14.60%     2 S             -13.876  2.00     1 C
                                   14.60%     2 S             -13.876  2.00     3 C
                                   14.59%     2 S             -13.876  2.00     6 C
                                    2.37%     1 P:z            -5.403  0.67     1 C
                                    2.37%     1 P:z            -5.403  0.67     4 C
                                    1.83%     1 P:x            -5.403  0.67     6 C
                                    1.82%     1 P:x            -5.403  0.67     3 C
                                    1.75%     1 P:x            -5.403  0.67     5 C
                                    1.73%     1 P:x            -5.403  0.67     2 C
                                    1.24%     1 S              -6.626  1.00     7 H
                                    1.24%     1 S              -6.626  1.00    10 H
                                    1.24%     1 S              -6.626  1.00     8 H
                                    1.23%     1 S              -6.626  1.00     9 H
                                    1.23%     1 S              -6.626  1.00    11 H
                                    1.23%     1 S              -6.626  1.00    12 H
     -18.622  2.00     8 A         20.85%     2 S             -13.876  2.00     2 C
                                   20.74%     2 S             -13.876  2.00     5 C
                                   12.94%     2 S             -13.876  2.00     3 C
                                   12.76%     2 S             -13.876  2.00     6 C
                                    5.52%     1 P:x            -5.403  0.67     4 C
                                    5.49%     1 P:x            -5.403  0.67     1 C
                                    5.13%     1 S              -6.626  1.00     7 H
                                    5.12%     1 S              -6.626  1.00    10 H
                                    3.17%     1 S              -6.626  1.00     8 H
                                    3.15%     1 S              -6.626  1.00    11 H
                                    2.41%     1 P:z            -5.403  0.67     3 C
                                    2.33%     1 P:z            -5.403  0.67     6 C
                                   -1.63%     2 P:x             4.709  0.00     4 C
                                   -1.62%     2 P:x             4.709  0.00     1 C
     -18.619  2.00     9 A         22.14%     2 S             -13.876  2.00     1 C
                                   22.07%     2 S             -13.876  2.00     4 C
                                   10.31%     2 S             -13.876  2.00     6 C
                                   10.12%     2 S             -13.876  2.00     3 C
                                    5.45%     1 S              -6.626  1.00    12 H
                                    5.44%     1 S              -6.626  1.00     9 H
                                    3.52%     1 P:z            -5.403  0.67     5 C
                                    3.47%     1 P:z            -5.403  0.67     2 C
                                    2.53%     1 S              -6.626  1.00    11 H
                                    2.51%     1 S              -6.626  1.00     8 H
                                    2.32%     2 S             -13.876  2.00     5 C
                                    2.22%     2 S             -13.876  2.00     2 C
                                    2.03%     1 P:z            -5.403  0.67     6 C
                                    1.95%     1 P:z            -5.403  0.67     3 C
                                    1.66%     1 P:x            -5.403  0.67     5 C
                                    1.65%     1 P:x            -5.403  0.67     2 C
[...]
 iter. 10 V(1) measure  0.8934579266436E+05
       10        delta  0.1609684928844E+00
 CRIT  8.675160299248688E-003
 iter. 11 V(1) measure  0.8934579241925E+05
       11        delta  0.2451035252307E-03
 *** convergence reached

    RRIJmat_z_z         
    using first order VWN potential
 
    NOTE: We will NOT use the GGA kernel (input option ALDA was set)
 
 CRIT   1.00000000000000     
 iter.  1 V(1) measure  0.1302755564358E+04
 *** convergence criterion : .1302756E-02
 CRIT   162.471999035434     
 iter.  2 V(1) measure  0.1073635909531E+04
        2        delta  0.2291196548269E+03
 CRIT   59.8804023975617     
 iter.  3 V(1) measure  0.1106416165450E+04
        3        delta  0.3278025591907E+02
 CRIT   10.3745192763217     
 iter.  4 V(1) measure  0.1111952371899E+04
        4        delta  0.5536206448789E+01
 CRIT   11.5351327462002     
 iter.  5 V(1) measure  0.1115257976309E+04
        5        delta  0.3305604409863E+01
 CRIT   1.77992843739027     
 iter.  6 V(1) measure  0.1115629295866E+04
        6        delta  0.3713195568557E+00
 CRIT   1.48076253475257     
 iter.  7 V(1) measure  0.1115852937663E+04
        7        delta  0.2236417967886E+00
 CRIT  0.709065872285150     
 iter.  8 V(1) measure  0.1115856411629E+04
        8        delta  0.3473966611864E-02
 CRIT  7.312139347920235E-002
 iter.  9 V(1) measure  0.1115853963066E+04
        9        delta  0.2448562969676E-02
 CRIT  5.051614968607414E-002
 iter. 10 V(1) measure  0.1115852294883E+04
       10        delta  0.1668183114816E-02
 CRIT  7.811225796093297E-003
 iter. 11 V(1) measure  0.1115852617633E+04
       11        delta  0.3227497081753E-03
 *** convergence reached
 ------------------------------------------
 Convergence acceleration: T
 QUADRUPOLE-QUADRUPOLE POLARIZABILITY     
 Frequency  =  0.1322975682     Hartrees
 Wavelength =   344.4005294     nm
 Wavenumber =   29035.96001     cm^{-1}
 Energy     =   3.600000000     eV
 ------------------------------------------
 QUADRUPOLE-QUADRUPOLE Polarizability tensor:
 
 xx xx     4188.82238786170     
 xx xy     8.03519873810331     
 xx xz   -0.194125638276311     
 xx yy    -4991.57351885915     
 xx yz    0.452373028701795     
 xx zz     802.751130997470     
 xy xx     8.04802173598713     
 xy xy     12591.1838492963     
 xy xz    0.387124369153420     
 xy yy   -4.333648435843429E-002
 xy yz   -0.689237594586127     
 xy zz    -8.00468525160560     
 xz xx   -0.194807019643125     
 xz xy    0.389735247150862     
 xz xz     1693.67167307758     
 xz yy    0.147421352013960     
 xz yz    -7.86593899145576     
 xz zz    4.738566763169490E-002
 yy xx    -4991.72875808885     
 yy xy    0.185423101331547     
 yy xz    0.126658409126637     
 yy yy     9983.61019722976     
 yy yz   -0.403542352269488     
 yy zz    -4991.88143914090     
 yz xx    0.456316925953566     
 yz xy   -0.720266505440702     
 yz xz    -7.85995907698668     
 yz yy    2.931814678089406E-002
 yz yz     12590.5586843743     
 yz zz   -0.485635072702817     
 zz xx     802.761442639051     
 zz xy    -7.98949699020583     
 zz xz    5.393666400338327E-002
 zz yy    -4991.89739239141     
 zz yz   -0.482246710379922     
 zz zz     4189.13594975237     
 
 Imaginary QUADRUPOLE-QUADRUPOLE Polarizability tensor:
 
 xx xx     18.7024180967356     
 xx xy    6.788600696653943E-002
 xx xz   -1.864781846559661E-003
 xx yy    -21.5489193369137     
 xx yz    4.179529160242380E-003
 xx zz     2.84650124017807     
 xy xx    6.834278004089354E-002
 xy xy     124.966152182108     
 xy xz    3.068459560218036E-003
 xy yy   -7.493145297828209E-004
 xy yz   -7.797558822840814E-003
 xy zz   -6.759346551082646E-002
 xz xx   -1.699151147455467E-003
 xz xy    3.623588212605271E-003
 xz xz     7.93290438619132     
 xz yy    1.207848208425678E-003
 xz yz   -6.620175788102634E-002
 xz zz    4.913029390726030E-004
 yy xx    -21.4415365114316     
 yy xy    3.941616699920739E-002
 yy xz    5.148391169171688E-004
 yy yy     42.8772847471789     
 yy yz   -9.971084907207803E-002
 yy zz    -21.4357482357475     
 yz xx    3.312609125729671E-003
 yz xy   -7.306431114453150E-003
 yz xz   -6.643519112010371E-002
 yz yy    5.405461796353719E-004
 yz yz     124.936604884613     
 yz zz   -3.853155305160645E-003
 zz xx     2.84613649016198     
 zz xy   -6.707634137109543E-002
 zz xz    6.137286172792753E-004
 zz yy    -21.5521037600993     
 zz yz   -4.851896353869991E-003
 zz zz     18.7059672699373     



 =======================================================================
 Electrostatic potential at the Nuclei due to electrons and other nuclei
 =======================================================================
  
         Atom                  Potential
         ----                  ---------
     1)   C                  14.76890078
     2)   C                  14.76880019
     3)   C                  14.76875727
     4)   C                  14.76890185
     5)   C                  14.76879649
     6)   C                  14.76874247
     7)   H                   1.10108983
     8)   H                   1.10117132
     9)   H                   1.10157414
    10)   H                   1.10109959
    11)   H                   1.10118410
    12)   H                   1.10157814
 
 
 ========================
 No memory problems found
 ========================
 
 Maximum number of active allocate calls:        1279
 
 *******************************************************************************

                             A D F   E X I T
 NORMAL TERMINATION



 =================
 Timing Statistics
 =================
  
 Total Used :                     CPU=       26.47      System=        0.42     Elapsed=       26.91

 Calls  Section                     ( Mean, Percentage )
 ---------------------------------------------------------------------------------------------------
     3  ><      ................      0.00    0.01             0.00    0.02             0.00    0.01
     1  INIT    ................      0.39    1.47             0.00    0.68             0.39    1.46
     1  GEOMET  ................      0.02    0.09             0.01    2.29             0.03    0.12
     1  FRAGM   ................      0.01    0.05             0.01    2.84             0.02    0.09
     1  INPUTA  ................      0.00    0.01             0.00    0.00             0.00    0.01
     1  ATDEN   ................      0.00    0.00             0.00    0.67             0.00    0.01
     1  MAINSY  ................      0.01    0.05             0.01    2.09             0.02    0.08
     1  SYMFIT  ................      0.00    0.02             0.00    0.03             0.00    0.02
     1  CORORT  ................      0.00    0.00             0.00    0.03             0.00    0.00
     1  SYMORB  ................      0.00    0.01             0.00    0.01             0.00    0.01
     1  CLSMAT  ................      0.01    0.03             0.00    0.01             0.01    0.03
     1  ORTHON  ................      0.01    0.04             0.00    0.13             0.01    0.04
     1  GENPT   ................      0.07    0.28             0.01    1.76             0.08    0.30
     1  PTBAS   ................      0.06    0.23             0.00    0.02             0.06    0.22
    12  FOCKY   ................      0.17    7.76             0.00    4.60             0.17    7.71
    12  FOCKTR  ................      0.00    0.09             0.00    0.16             0.00    0.09
    12  SDIIS   ................      0.00    0.13             0.00    0.94             0.00    0.14
     1  COREPS  ................      0.13    0.49             0.00    0.95             0.13    0.50
     1  TOTEN   ................      0.62    2.34             0.01    2.84             0.63    2.35
     1  POPAN   ................      0.01    0.02             0.00    0.00             0.01    0.02
     1  DEBYE   ................      0.01    0.04             0.00    0.00             0.01    0.04
     1  INPUTE  ................      0.00    0.00             0.00    0.00             0.00    0.00
     1  SYMORE  ................      0.00    0.00             0.00    0.00             0.00    0.00
     1  METS    ................      0.00    0.00             0.00    0.00             0.00    0.00
     1  CETS    ................      0.01    0.03             0.00    0.00             0.01    0.03
     1  ELNRGY  ................      0.01    0.03             0.00    0.00             0.01    0.03
     1  POPUL   ................      0.01    0.02             0.00    0.93             0.01    0.04
     1  AORESPONSE .............     22.96   86.73             0.33   77.68            23.30   86.59
     1  EXIT PROCEDURE .........      0.01    0.05             0.01    1.34             0.02    0.07


 Currently Open Files (EXIT00)
 ====================

 Unit    Access Format  Status   Type       Ident (file)
 -------------------------------------------------------
   3      SEQ    FORM   TRANSP  NORMAL      LOGFILE
                                          ( logfile )

 ***************************************************************************************************
 (LOGFILE)
 <Sep29-2020> <15:18:46>  ADF 2019  RunTime: Sep29-2020 15:18:46  Nodes: 1  Procs: 1
 <Sep29-2020> <15:18:46>  Hydrogen (TZP)
 <Sep29-2020> <15:18:46>  RunType   : CREATE
 <Sep29-2020> <15:18:46>  Net Charge: 0 (Nuclei minus Electrons)
 <Sep29-2020> <15:18:46>  Symmetry  : ATOM
  Coordinates
    Atom         X           Y           Z   (Angstrom)
    1.H         0.000000    0.000000    0.000000
 <Sep29-2020> <15:18:46>  >>>> CORORT
 <Sep29-2020> <15:18:46>  >>>> CLSMAT
 <Sep29-2020> <15:18:46>  >>>> ORTHON
 <Sep29-2020> <15:18:46>  >>>> GENPT
 <Sep29-2020> <15:18:46>  Block Length=  64
 <Sep29-2020> <15:18:46>  >>>> PTBAS
 <Sep29-2020> <15:18:46>  >>>> CYCLE
 <Sep29-2020> <15:18:46>              |Error|         MaxErr       Wt(A-DIIS)
 <Sep29-2020> <15:18:46>      1      0.00000000      0.00000000
 <Sep29-2020> <15:18:46>      2      0.03052909      0.02968459
 <Sep29-2020> <15:18:46>      3      0.00718138      0.00670742    100.0
 <Sep29-2020> <15:18:46>      4      0.00117303      0.00114116      0.1
 <Sep29-2020> <15:18:46>      5      0.00002783      0.00002380      0.0
 <Sep29-2020> <15:18:46>      6      0.00000153      0.00000130      0.0
 <Sep29-2020> <15:18:46>      7      0.00000000      0.00000000      0.0
 <Sep29-2020> <15:18:46>  SCF converged
 <Sep29-2020> <15:18:46>      8      0.00000000      0.00000000      0.0
 <Sep29-2020> <15:18:46>  >>>> POPAN
 <Sep29-2020> <15:18:46>  >>>> DEBYE
 <Sep29-2020> <15:18:46>  NORMAL TERMINATION
 <Sep29-2020> <15:18:46>  END
 <Sep29-2020> <15:18:46>  ADF 2019  RunTime: Sep29-2020 15:18:46  Nodes: 1  Procs: 1
 <Sep29-2020> <15:18:46>  Carbon (TZP)
 <Sep29-2020> <15:18:46>  RunType   : CREATE
 <Sep29-2020> <15:18:46>  Net Charge: 0 (Nuclei minus Electrons)
 <Sep29-2020> <15:18:46>  Symmetry  : ATOM
  Coordinates
    Atom         X           Y           Z   (Angstrom)
    1.C         0.000000    0.000000    0.000000
 <Sep29-2020> <15:18:46>  >>>> CORORT
 <Sep29-2020> <15:18:46>  >>>> CLSMAT
 <Sep29-2020> <15:18:46>  >>>> ORTHON
 <Sep29-2020> <15:18:46>  >>>> GENPT
 <Sep29-2020> <15:18:46>  Block Length=  72
 <Sep29-2020> <15:18:46>  >>>> PTBAS
 <Sep29-2020> <15:18:46>  >>>> CYCLE
 <Sep29-2020> <15:18:46>              |Error|         MaxErr       Wt(A-DIIS)
 <Sep29-2020> <15:18:46>      1      0.00000000      0.00000000
 <Sep29-2020> <15:18:46>      2      4.48324754      3.31969244    100.0
 <Sep29-2020> <15:18:46>      3      1.61537707      1.30410194    100.0
 <Sep29-2020> <15:18:46>      4      0.72706284      0.59053131    100.0
 <Sep29-2020> <15:18:46>      5      0.40898688      0.33263800    100.0
 <Sep29-2020> <15:18:46>      6      0.13548919      0.10594416    100.0
 <Sep29-2020> <15:18:46>      7      0.11406432      0.09088019     90.8
 <Sep29-2020> <15:18:46>      8      0.01170325      0.00926551      8.3
 <Sep29-2020> <15:18:46>      9      0.00078015      0.00061791      0.0
 <Sep29-2020> <15:18:46>     10      0.00000178      0.00000107      0.0
 <Sep29-2020> <15:18:46>     11      0.00000024      0.00000019      0.0
 <Sep29-2020> <15:18:46>     12      0.00000000      0.00000000      0.0
 <Sep29-2020> <15:18:46>  SCF converged
 <Sep29-2020> <15:18:47>     13      0.00000000      0.00000000      0.0
 <Sep29-2020> <15:18:47>  >>>> POPAN
 <Sep29-2020> <15:18:47>  >>>> DEBYE
 <Sep29-2020> <15:18:47>  NORMAL TERMINATION
 <Sep29-2020> <15:18:47>  END
 <Sep29-2020> <15:18:47>  ADF 2019  RunTime: Sep29-2020 15:18:47  Nodes: 1  Procs: 6
 <Sep29-2020> <15:18:47>  None
 <Sep29-2020> <15:18:47>  RunType   : SINGLE POINT
 <Sep29-2020> <15:18:47>  Net Charge: 0 (Nuclei minus Electrons)
 <Sep29-2020> <15:18:47>  Symmetry  : NOSYM
 <Sep29-2020> <15:18:47>  >>>> FRAGM
  Coordinates
    Atom         X           Y           Z   (Angstrom)
    1.C         0.031352    4.000000   -1.398563
    2.C        -1.197858    4.000000   -0.723876
    3.C        -1.227499    4.000000    0.672244
    4.C        -0.028043    4.000000    1.398632
    5.C         1.196142    4.000000    0.726724
    6.C         1.225901    4.000000   -0.675161
    7.H        -2.129375    4.000000   -1.292691
    8.H        -2.182433    4.000000    1.201012
    9.H        -0.054382    4.000000    2.490068
   10.H         2.130815    4.000000    1.290330
   11.H         2.183878    4.000000   -1.198577
   12.H         0.051534    4.000000   -2.490132
 <Sep29-2020> <15:18:47>  >>>> CORORT
 <Sep29-2020> <15:18:47>  >>>> CLSMAT
 <Sep29-2020> <15:18:47>  >>>> ORTHON
 <Sep29-2020> <15:18:47>  >>>> GENPT
 <Sep29-2020> <15:18:47>  Block Length= 128
 <Sep29-2020> <15:18:47>  >>>> PTBAS
 <Sep29-2020> <15:18:47>  >>>> CYCLE
 <Sep29-2020> <15:18:48>              |Error|         MaxErr       Wt(A-DIIS)
 <Sep29-2020> <15:18:48>      1      5.99101583      0.98027767
 <Sep29-2020> <15:18:48>      2      0.89236493      0.18710871    100.0
 <Sep29-2020> <15:18:48>      3      0.52147510      0.10261062    100.0
 <Sep29-2020> <15:18:48>      4      0.74328645      0.17266335    100.0
 <Sep29-2020> <15:18:48>      5      0.07623098      0.01073152      9.8
 <Sep29-2020> <15:18:48>      6      0.01071152      0.00169750      0.7
 <Sep29-2020> <15:18:49>      7      0.00113806      0.00027518      0.0
 <Sep29-2020> <15:18:49>      8      0.00034428      0.00010044      0.0
 <Sep29-2020> <15:18:49>      9      0.00016633      0.00005364      0.0
 <Sep29-2020> <15:18:49>     10      0.00005613      0.00001610      0.0
 <Sep29-2020> <15:18:49>     11      0.00000337      0.00000076      0.0
 <Sep29-2020> <15:18:49>  SCF converged
 <Sep29-2020> <15:18:50>     12      0.00000087      0.00000011      0.0
 <Sep29-2020> <15:18:50>  >>>> TOTEN
 <Sep29-2020> <15:18:50>  >>>> POPAN
 <Sep29-2020> <15:18:50>  >>>> DEBYE
 <Sep29-2020> <15:18:50>  >>>> AMETS
 <Sep29-2020> <15:18:50>  >>>> POPUL
 <Sep29-2020> <15:18:51>     1 V(1)  0.1843230E+04
 <Sep29-2020> <15:18:51>     2 V(1)  0.1573521E+04
 <Sep29-2020> <15:18:51>     3 V(1)  0.1556239E+04
 <Sep29-2020> <15:18:51>     4 V(1)  0.1562789E+04
 <Sep29-2020> <15:18:52>     5 V(1)  0.1564718E+04
 <Sep29-2020> <15:18:52>     6 V(1)  0.1564675E+04
 <Sep29-2020> <15:18:52>     7 V(1)  0.1564582E+04
 <Sep29-2020> <15:18:52>     8 V(1)  0.1564566E+04
 <Sep29-2020> <15:18:52>     9 V(1)  0.1564563E+04
 <Sep29-2020> <15:18:53>    10 V(1)  0.1564560E+04
 <Sep29-2020> <15:18:53>    11 V(1)  0.1564560E+04
 <Sep29-2020> <15:18:53>   convergence reached
 <Sep29-2020> <15:18:53>     1 V(1)  0.2536156E+02
 <Sep29-2020> <15:18:53>     2 V(1)  0.2328849E+02
 <Sep29-2020> <15:18:54>     3 V(1)  0.2328314E+02
 <Sep29-2020> <15:18:54>     4 V(1)  0.2328239E+02
 <Sep29-2020> <15:18:54>     5 V(1)  0.2328227E+02
 <Sep29-2020> <15:18:54>     6 V(1)  0.2328230E+02
 <Sep29-2020> <15:18:55>     7 V(1)  0.2328231E+02
 <Sep29-2020> <15:18:55>   convergence reached
 <Sep29-2020> <15:18:55>     1 V(1)  0.1841015E+04
 <Sep29-2020> <15:18:55>     2 V(1)  0.1571521E+04
 <Sep29-2020> <15:18:55>     3 V(1)  0.1554288E+04
 <Sep29-2020> <15:18:56>     4 V(1)  0.1560826E+04
 <Sep29-2020> <15:18:56>     5 V(1)  0.1562756E+04
 <Sep29-2020> <15:18:56>     6 V(1)  0.1562712E+04
 <Sep29-2020> <15:18:56>     7 V(1)  0.1562622E+04
 <Sep29-2020> <15:18:57>     8 V(1)  0.1562603E+04
 <Sep29-2020> <15:18:57>     9 V(1)  0.1562600E+04
 <Sep29-2020> <15:18:57>    10 V(1)  0.1562598E+04
 <Sep29-2020> <15:18:57>    11 V(1)  0.1562597E+04
 <Sep29-2020> <15:18:57>   convergence reached
 <Sep29-2020> <15:18:58>     1 V(1)  0.1303092E+04
 <Sep29-2020> <15:18:58>     2 V(1)  0.1073811E+04
 <Sep29-2020> <15:18:58>     3 V(1)  0.1106607E+04
 <Sep29-2020> <15:18:58>     4 V(1)  0.1112137E+04
 <Sep29-2020> <15:18:59>     5 V(1)  0.1115446E+04
 <Sep29-2020> <15:18:59>     6 V(1)  0.1115815E+04
 <Sep29-2020> <15:18:59>     7 V(1)  0.1116039E+04
 <Sep29-2020> <15:19:00>     8 V(1)  0.1116042E+04
 <Sep29-2020> <15:19:00>     9 V(1)  0.1116040E+04
 <Sep29-2020> <15:19:00>    10 V(1)  0.1116038E+04
 <Sep29-2020> <15:19:00>    11 V(1)  0.1116038E+04
 <Sep29-2020> <15:19:00>   convergence reached
 <Sep29-2020> <15:19:01>     1 V(1)  0.1057410E+06
 <Sep29-2020> <15:19:01>     2 V(1)  0.8961944E+05
 <Sep29-2020> <15:19:01>     3 V(1)  0.8872508E+05
 <Sep29-2020> <15:19:02>     4 V(1)  0.8935097E+05
 <Sep29-2020> <15:19:02>     5 V(1)  0.8946847E+05
 <Sep29-2020> <15:19:02>     6 V(1)  0.8946509E+05
 <Sep29-2020> <15:19:02>     7 V(1)  0.8945922E+05
 <Sep29-2020> <15:19:03>     8 V(1)  0.8945830E+05
 <Sep29-2020> <15:19:03>     9 V(1)  0.8945808E+05
 <Sep29-2020> <15:19:03>    10 V(1)  0.8945792E+05
 <Sep29-2020> <15:19:03>    11 V(1)  0.8945793E+05
 <Sep29-2020> <15:19:03>   convergence reached
 <Sep29-2020> <15:19:04>     1 V(1)  0.6154397E+03
 <Sep29-2020> <15:19:04>     2 V(1)  0.4705554E+03
 <Sep29-2020> <15:19:04>     3 V(1)  0.4785802E+03
 <Sep29-2020> <15:19:04>     4 V(1)  0.4849062E+03
 <Sep29-2020> <15:19:05>     5 V(1)  0.4855990E+03
 <Sep29-2020> <15:19:05>     6 V(1)  0.4861464E+03
 <Sep29-2020> <15:19:05>     7 V(1)  0.4861975E+03
 <Sep29-2020> <15:19:05>     8 V(1)  0.4861987E+03
 <Sep29-2020> <15:19:06>     9 V(1)  0.4861970E+03
 <Sep29-2020> <15:19:06>    10 V(1)  0.4861968E+03
 <Sep29-2020> <15:19:06>   convergence reached
 <Sep29-2020> <15:19:06>     1 V(1)  0.2748663E+04
 <Sep29-2020> <15:19:06>     2 V(1)  0.2507346E+04
 <Sep29-2020> <15:19:07>     3 V(1)  0.2520082E+04
 <Sep29-2020> <15:19:07>     4 V(1)  0.2520507E+04
 <Sep29-2020> <15:19:07>     5 V(1)  0.2520506E+04
 <Sep29-2020> <15:19:07>   convergence reached
 <Sep29-2020> <15:19:08>     1 V(1)  0.1056142E+06
 <Sep29-2020> <15:19:08>     2 V(1)  0.8950554E+05
 <Sep29-2020> <15:19:08>     3 V(1)  0.8861390E+05
 <Sep29-2020> <15:19:09>     4 V(1)  0.8923889E+05
 <Sep29-2020> <15:19:09>     5 V(1)  0.8935633E+05
 <Sep29-2020> <15:19:09>     6 V(1)  0.8935295E+05
 <Sep29-2020> <15:19:09>     7 V(1)  0.8934724E+05
 <Sep29-2020> <15:19:10>     8 V(1)  0.8934617E+05
 <Sep29-2020> <15:19:10>     9 V(1)  0.8934595E+05
 <Sep29-2020> <15:19:10>    10 V(1)  0.8934579E+05
 <Sep29-2020> <15:19:11>    11 V(1)  0.8934579E+05
 <Sep29-2020> <15:19:11>   convergence reached
 <Sep29-2020> <15:19:11>     1 V(1)  0.1302756E+04
 <Sep29-2020> <15:19:11>     2 V(1)  0.1073636E+04
 <Sep29-2020> <15:19:11>     3 V(1)  0.1106416E+04
 <Sep29-2020> <15:19:12>     4 V(1)  0.1111952E+04
 <Sep29-2020> <15:19:12>     5 V(1)  0.1115258E+04
 <Sep29-2020> <15:19:12>     6 V(1)  0.1115629E+04
 <Sep29-2020> <15:19:13>     7 V(1)  0.1115853E+04
 <Sep29-2020> <15:19:13>     8 V(1)  0.1115856E+04
 <Sep29-2020> <15:19:13>     9 V(1)  0.1115854E+04
 <Sep29-2020> <15:19:13>    10 V(1)  0.1115852E+04
 <Sep29-2020> <15:19:14>    11 V(1)  0.1115853E+04
 <Sep29-2020> <15:19:14>   convergence reached
 <Sep29-2020> <15:19:14>  NORMAL TERMINATION
 <Sep29-2020> <15:19:14>  END
