

 Parallel Execution: Process Information
 ==============================================================================
 Rank   Node Name                              NodeID   MyNodeRank  NodeMaster
    0   magnesium.science.psu.edu                 0          0          0
    1   magnesium.science.psu.edu                 0          1         -1
    2   magnesium.science.psu.edu                 0          2         -1
    3   magnesium.science.psu.edu                 0          3         -1
    4   magnesium.science.psu.edu                 0          4         -1
    5   magnesium.science.psu.edu                 0          5         -1
 ==============================================================================


May use up to 7495MB of RAM as shared memory on node 0
 
TITLE None

ATOMS
1  C     0.02968941    4.00000000   -1.39862117
2  C    -1.19684120    4.00000000   -0.72554350
3  C    -1.22655708    4.00000000    0.67394350
4  C    -0.02968941    4.00000000    1.39862117
5  C     1.19684120    4.00000000    0.72554350
6  C     1.22655708    4.00000000   -0.67393820
7  H    -2.12869196    4.00000000   -1.29379732
8  H    -2.18184018    4.00000000    1.20207086
9  H    -0.05292589    4.00000000    2.49012117
10 H     2.12871314    4.00000000    1.29376556
11 H     2.18195076    4.00000000   -1.20204439
12 H     0.05279413    4.00000000   -2.49012117
END

XC
 gga BP86
end

symmetry nosym

aoresponse
 alda
 frequency 1 3.6 eV
 lifetime 0.0037
 El_Dipole_El_Dipole
 El_Dipole_El_Quadrupole
 El_Quadrupole_El_Quadrupole
 Traceless
end

Fragments
H t21.H
C t21.C
End

 *******************************************************************************
 *                                                                             *
 *  -------------------------------------                                      *
 *   Amsterdam Density Functional  (ADF)         2019                          *
 *  -------------------------------------                                      *
 *                                               r75281 2019-06-03             *
 *                                                                             *
 *                                                                             *
 *                              =================                              *
 *                              |               |                              *
 *                              |     A D F     |                              *
 *                              |               |                              *
 *                              =================                              *
 *                                                                             *
 *                                                                             *
 *   Online information and documentation:  https://www.scm.com/support/       *
 *   E-mail:  support@scm.com   info@scm.com                                   *
 *                                                                             *
 *   Scientific publications using ADF results must be properly referenced     *
 *   See the User Manuals (or the web site) for recommended citations          *
 *   The terms and conditions of the End User License Agreement apply to       *
 *   the use of ADF, https://www.scm.com/license-terms/                        *
 *                                                                             *
 **********************  x86_64_linux_intel / intelmpi  ************************
 
 Licensed to: Prof. Lasse Jensen / Penn State University / University Park / PA  / USA
 SCM User ID: u8493
  
 ADF 2019  RunTime: Sep29-2020 15:16:08  Nodes: 1  Procs: 6

 Temporary files are created in /scratch/kid_0.397949052


Communication costs MPI_COMM_WORLD:      0.602 usec per message,   0.0074 usec per 8-byte item
Communication costs for intra-node:      0.548 usec per message,   0.0073 usec per 8-byte item

 None



 ===========================
 A T T A C H E D   F I L E S
 ===========================
  



 ===============================
 M O D E L   P A R A M E T E R S
 ===============================
  
 DENSITY FUNCTIONAL POTENTIAL (scf)
    LDA:                               VWN                                      
    Gradient Corrections:              Becke88 Perdew86                        == Not Default ==

 SPIN  (restricted / unrestr.)
    Molecule:                          Restricted                               
    Fragments:                         Restricted                               

 OTHER ASPECTS
    Relativistic Corrections:          ---                                      

    Nuclear Charge Density Model:      Point Charge Nuclei                      
    Core Treatment:                    Frozen Orbital(s)                        

    Hyperfine or Zeeman Interaction:   ---                                      


 Fragment File(s)
 ----------------
 C:
         file : t21.C
         jobid: ADF 2019  RunTime: Sep29-2020 15:16:07  Nodes: 1  Procs: 1
         title: Carbon (TZP)
 H:
         file : t21.H
         jobid: ADF 2019  RunTime: Sep29-2020 15:16:06  Nodes: 1  Procs: 1
         title: Hydrogen (TZP)



                                        ************************************
                                        *  R U N   T Y P E : SINGLE POINT  *
                                        ************************************
  



 ===============
 G E O M E T R Y  ***  Planar Molecule  ***
 ===============
  

 ATOMS
 =====                            X Y Z                    CHARGE
                                (Angstrom)             Nucl     +Core       At.Mass
                       --------------------------    ----------------       -------
    1  C               0.0297    4.0000   -1.3986      6.00      6.00       12.0000
    2  C              -1.1968    4.0000   -0.7255      6.00      6.00       12.0000
    3  C              -1.2266    4.0000    0.6739      6.00      6.00       12.0000
    4  C              -0.0297    4.0000    1.3986      6.00      6.00       12.0000
    5  C               1.1968    4.0000    0.7255      6.00      6.00       12.0000
    6  C               1.2266    4.0000   -0.6739      6.00      6.00       12.0000
    7  H              -2.1287    4.0000   -1.2938      1.00      1.00        1.0078
    8  H              -2.1818    4.0000    1.2021      1.00      1.00        1.0078
    9  H              -0.0529    4.0000    2.4901      1.00      1.00        1.0078
   10  H               2.1287    4.0000    1.2938      1.00      1.00        1.0078
   11  H               2.1820    4.0000   -1.2020      1.00      1.00        1.0078
   12  H               0.0528    4.0000   -2.4901      1.00      1.00        1.0078


 FRAGMENTS
 =========                                     Atoms in this Fragment     Cart. coord.s (Angstrom)
                                               -------------------------------------------------------
    1  C                                                 1  C            0.0297    4.0000   -1.3986
    2  C                                                 2  C           -1.1968    4.0000   -0.7255
    3  C                                                 3  C           -1.2266    4.0000    0.6739
    4  C                                                 4  C           -0.0297    4.0000    1.3986
    5  C                                                 5  C            1.1968    4.0000    0.7255
    6  C                                                 6  C            1.2266    4.0000   -0.6739
    7  H                                                 7  H           -2.1287    4.0000   -1.2938
    8  H                                                 8  H           -2.1818    4.0000    1.2021
    9  H                                                 9  H           -0.0529    4.0000    2.4901
   10  H                                                10  H            2.1287    4.0000    1.2938
   11  H                                                11  H            2.1820    4.0000   -1.2020
   12  H                                                12  H            0.0528    4.0000   -2.4901


 Interatomic Distance Matrix (Angstrom)
 --------------------------------------

   1)     0.000
   2)     1.399   0.000
   3)     2.424   1.400   0.000
   4)     2.798   2.424   1.399   0.000
   5)     2.424   2.799   2.424   1.399   0.000
   6)     1.399   2.424   2.799   2.424   1.400   0.000
   7)     2.161   1.091   2.165   3.414   3.891   3.412   0.000
   8)     3.414   2.165   1.092   2.161   3.412   3.891   2.496   0.000
   9)     3.890   3.413   2.162   1.092   2.162   3.413   4.316   2.488   0.000
  10)     3.414   3.891   3.412   2.161   1.091   2.165   4.982   4.312   2.488   0.000
  11)     2.161   3.412   3.891   3.414   2.165   1.092   4.312   4.982   4.316   2.496
          0.000
  12)     1.092   2.162   3.413   3.890   3.413   2.162   2.488   4.316   4.981   4.316
          2.488   0.000

 Min. Distance =    1.0914
 Max. Distance =    4.9822



 =====================================
 S Y M M E T R Y ,   E L E C T R O N S
 =====================================
  
 Symmetry: NOSYM

 Irreducible Representations, including subspecies
 -------------------------------------------------
 A


 Configuration of Valence Electrons
 ==================================
 ( determined in the SCF procedure )

 Total:   42

 Net Charge: 0 (Nuclei minus Electrons)

 Aufbau principle for MO occupations will be applied through SCF cycle no.     150
 Thereafter, the program will assign electrons to MOs that are spatially
 similar to the occupied MOs in a "reference" cycle ("KeepOrbitals").
 The reference cycle is always the PREVIOUS cycle: it will evolve with
 the SCF procedure.
1
 ***************************************************************************************************



                                      ****************************************
                                      *  B U I L D : (Fragments, Functions)  *
                                      ****************************************
  



 =======
 S F O s  ***  (Symmetrized Fragment Orbitals)  ***
 =======
  
 SFOs are linear combinations of (valence) Fragment Orbitals (FOs), such that the SFOs transform as the
 irreducible representations of the (molecular) symmetry group. Each SFO is therefore characterized by
 an irrep of the molecule and by a few (or only one) generating FOs.
 The SFOs constitute a symmetry-adapted basis for the Fock matrix. The MO eigenvector coefficients in
 this basis provide a direct interpretation of the MOs in terms of Frontier Orbital Theory.

 The SFOs are combined with auxiliary Core Functions (CFs) to ensure orthogonalization on the (frozen)
 Core Orbitals (COs). The Core-orthogonalized SFOs (CSFOs) constitute the true Fock basis.

 The FOs, and hence also the (C)SFOs are combinations of the elementary basis functions (BAS). The basis
 functions that participate in the description of the SFOs depend on the irrep. The indices of the
 involved functions are printed below for each irrep.
 (The complete list of primitive basis functions is printed in another section)

 Total nr. of (C)SFOs (summation over all irreps) :   150

 NOTE: a (C)SFO that is defined as a combination of more than one FO is usually NOT normalized.



                                       === A ===
 Nr. of SFOs :  150
 Cartesian basis functions that participate in this irrep (total number =   156) :
      1     2     3     4     5     6     9    12     7    10
     13     8    11    14    15    16    17    18    19    20
     21    22    23    24    25    26    29    32    27    30
     33    28    31    34    35    36    37    38    39    40
     41    42    43    44    45    46    49    52    47    50
     53    48    51    54    55    56    57    58    59    60
     61    62    63    64    65    66    69    72    67    70
     73    68    71    74    75    76    77    78    79    80
     81    82    83    84    85    86    89    92    87    90
     93    88    91    94    95    96    97    98    99   100
    101   102   103   104   105   106   109   112   107   110
    113   108   111   114   115   116   117   118   119   120
    121   122   123   124   125   126   127   128   129   130
    131   132   133   134   135   136   137   138   139   140
    141   142   143   144   145   146   147   148   149   150
    151   152   153   154   155   156

    SFO  (index         Fragment          Generating    Expansion in Fragment Orbitals
  indx  incl.CFs)   Occup   Orb.Energy   FragmentType  Coeff.   Orbital     on Fragment
 --------------------------------------------------------------------------------------
     1       1      2.000     -10.058 au  C             1.00      1 S               1
                        (    -273.681 eV)
     2       2      2.000      -0.510 au  C             1.00      2 S               1
                        (     -13.876 eV)
     3       3       --         0.371 au  C             1.00      3 S               1
                        (      10.091 eV)
     4       4       --         5.428 au  C             1.00      4 S               1
                        (     147.707 eV)
     5       5       --        50.181 au  C             1.00      5 S               1
                        (    1365.486 eV)
     6       6      0.667      -0.199 au  C             1.00      1 P:x             1
                        (      -5.403 eV)
     7       7       --         0.173 au  C             1.00      2 P:x             1
                        (       4.709 eV)
     8       8       --         2.026 au  C             1.00      3 P:x             1
                        (      55.143 eV)
     9       9      0.667      -0.199 au  C             1.00      1 P:y             1
                        (      -5.403 eV)
    10      10       --         0.173 au  C             1.00      2 P:y             1
                        (       4.709 eV)
    11      11       --         2.026 au  C             1.00      3 P:y             1
                        (      55.143 eV)
    12      12      0.667      -0.199 au  C             1.00      1 P:z             1
                        (      -5.403 eV)
    13      13       --         0.173 au  C             1.00      2 P:z             1
                        (       4.709 eV)
    14      14       --         2.026 au  C             1.00      3 P:z             1
                        (      55.143 eV)
    15      15       --         1.232 au  C             1.00      1 D:z2            1
                        (      33.528 eV)
    16      16       --         1.232 au  C             1.00      1 D:x2-y2         1
                        (      33.528 eV)
    17      17       --         1.232 au  C             1.00      1 D:xy            1
                        (      33.528 eV)
    18      18       --         1.232 au  C             1.00      1 D:xz            1
                        (      33.528 eV)
    19      19       --         1.232 au  C             1.00      1 D:yz            1
                        (      33.528 eV)
    20      20      2.000     -10.058 au  C             1.00      1 S               2
                        (    -273.681 eV)
    21      21      2.000      -0.510 au  C             1.00      2 S               2
                        (     -13.876 eV)
    22      22       --         0.371 au  C             1.00      3 S               2
                        (      10.091 eV)
    23      23       --         5.428 au  C             1.00      4 S               2
                        (     147.707 eV)
    24      24       --        50.181 au  C             1.00      5 S               2
                        (    1365.486 eV)
    25      25      0.667      -0.199 au  C             1.00      1 P:x             2
                        (      -5.403 eV)
    26      26       --         0.173 au  C             1.00      2 P:x             2
                        (       4.709 eV)
    27      27       --         2.026 au  C             1.00      3 P:x             2
                        (      55.143 eV)
    28      28      0.667      -0.199 au  C             1.00      1 P:y             2
                        (      -5.403 eV)
    29      29       --         0.173 au  C             1.00      2 P:y             2
                        (       4.709 eV)
    30      30       --         2.026 au  C             1.00      3 P:y             2
                        (      55.143 eV)
    31      31      0.667      -0.199 au  C             1.00      1 P:z             2
                        (      -5.403 eV)
    32      32       --         0.173 au  C             1.00      2 P:z             2
                        (       4.709 eV)
    33      33       --         2.026 au  C             1.00      3 P:z             2
                        (      55.143 eV)
    34      34       --         1.232 au  C             1.00      1 D:z2            2
                        (      33.528 eV)
    35      35       --         1.232 au  C             1.00      1 D:x2-y2         2
                        (      33.528 eV)
    36      36       --         1.232 au  C             1.00      1 D:xy            2
                        (      33.528 eV)
    37      37       --         1.232 au  C             1.00      1 D:xz            2
                        (      33.528 eV)
    38      38       --         1.232 au  C             1.00      1 D:yz            2
                        (      33.528 eV)
    39      39      2.000     -10.058 au  C             1.00      1 S               3
                        (    -273.681 eV)
    40      40      2.000      -0.510 au  C             1.00      2 S               3
                        (     -13.876 eV)
    41      41       --         0.371 au  C             1.00      3 S               3
                        (      10.091 eV)
    42      42       --         5.428 au  C             1.00      4 S               3
                        (     147.707 eV)
    43      43       --        50.181 au  C             1.00      5 S               3
                        (    1365.486 eV)
    44      44      0.667      -0.199 au  C             1.00      1 P:x             3
                        (      -5.403 eV)
    45      45       --         0.173 au  C             1.00      2 P:x             3
                        (       4.709 eV)
    46      46       --         2.026 au  C             1.00      3 P:x             3
                        (      55.143 eV)
    47      47      0.667      -0.199 au  C             1.00      1 P:y             3
                        (      -5.403 eV)
    48      48       --         0.173 au  C             1.00      2 P:y             3
                        (       4.709 eV)
    49      49       --         2.026 au  C             1.00      3 P:y             3
                        (      55.143 eV)
    50      50      0.667      -0.199 au  C             1.00      1 P:z             3
                        (      -5.403 eV)
    51      51       --         0.173 au  C             1.00      2 P:z             3
                        (       4.709 eV)
    52      52       --         2.026 au  C             1.00      3 P:z             3
                        (      55.143 eV)
    53      53       --         1.232 au  C             1.00      1 D:z2            3
                        (      33.528 eV)
    54      54       --         1.232 au  C             1.00      1 D:x2-y2         3
                        (      33.528 eV)
    55      55       --         1.232 au  C             1.00      1 D:xy            3
                        (      33.528 eV)
    56      56       --         1.232 au  C             1.00      1 D:xz            3
                        (      33.528 eV)
    57      57       --         1.232 au  C             1.00      1 D:yz            3
                        (      33.528 eV)
    58      58      2.000     -10.058 au  C             1.00      1 S               4
                        (    -273.681 eV)
    59      59      2.000      -0.510 au  C             1.00      2 S               4
                        (     -13.876 eV)
    60      60       --         0.371 au  C             1.00      3 S               4
                        (      10.091 eV)
    61      61       --         5.428 au  C             1.00      4 S               4
                        (     147.707 eV)
    62      62       --        50.181 au  C             1.00      5 S               4
                        (    1365.486 eV)
    63      63      0.667      -0.199 au  C             1.00      1 P:x             4
                        (      -5.403 eV)
    64      64       --         0.173 au  C             1.00      2 P:x             4
                        (       4.709 eV)
    65      65       --         2.026 au  C             1.00      3 P:x             4
                        (      55.143 eV)
    66      66      0.667      -0.199 au  C             1.00      1 P:y             4
                        (      -5.403 eV)
    67      67       --         0.173 au  C             1.00      2 P:y             4
                        (       4.709 eV)
    68      68       --         2.026 au  C             1.00      3 P:y             4
                        (      55.143 eV)
    69      69      0.667      -0.199 au  C             1.00      1 P:z             4
                        (      -5.403 eV)
    70      70       --         0.173 au  C             1.00      2 P:z             4
                        (       4.709 eV)
    71      71       --         2.026 au  C             1.00      3 P:z             4
                        (      55.143 eV)
    72      72       --         1.232 au  C             1.00      1 D:z2            4
                        (      33.528 eV)
    73      73       --         1.232 au  C             1.00      1 D:x2-y2         4
                        (      33.528 eV)
    74      74       --         1.232 au  C             1.00      1 D:xy            4
                        (      33.528 eV)
    75      75       --         1.232 au  C             1.00      1 D:xz            4
                        (      33.528 eV)
    76      76       --         1.232 au  C             1.00      1 D:yz            4
                        (      33.528 eV)
    77      77      2.000     -10.058 au  C             1.00      1 S               5
                        (    -273.681 eV)
    78      78      2.000      -0.510 au  C             1.00      2 S               5
                        (     -13.876 eV)
    79      79       --         0.371 au  C             1.00      3 S               5
                        (      10.091 eV)
    80      80       --         5.428 au  C             1.00      4 S               5
                        (     147.707 eV)
    81      81       --        50.181 au  C             1.00      5 S               5
                        (    1365.486 eV)
    82      82      0.667      -0.199 au  C             1.00      1 P:x             5
                        (      -5.403 eV)
    83      83       --         0.173 au  C             1.00      2 P:x             5
                        (       4.709 eV)
    84      84       --         2.026 au  C             1.00      3 P:x             5
                        (      55.143 eV)
    85      85      0.667      -0.199 au  C             1.00      1 P:y             5
                        (      -5.403 eV)
    86      86       --         0.173 au  C             1.00      2 P:y             5
                        (       4.709 eV)
    87      87       --         2.026 au  C             1.00      3 P:y             5
                        (      55.143 eV)
    88      88      0.667      -0.199 au  C             1.00      1 P:z             5
                        (      -5.403 eV)
    89      89       --         0.173 au  C             1.00      2 P:z             5
                        (       4.709 eV)
    90      90       --         2.026 au  C             1.00      3 P:z             5
                        (      55.143 eV)
    91      91       --         1.232 au  C             1.00      1 D:z2            5
                        (      33.528 eV)
    92      92       --         1.232 au  C             1.00      1 D:x2-y2         5
                        (      33.528 eV)
    93      93       --         1.232 au  C             1.00      1 D:xy            5
                        (      33.528 eV)
    94      94       --         1.232 au  C             1.00      1 D:xz            5
                        (      33.528 eV)
    95      95       --         1.232 au  C             1.00      1 D:yz            5
                        (      33.528 eV)
    96      96      2.000     -10.058 au  C             1.00      1 S               6
                        (    -273.681 eV)
    97      97      2.000      -0.510 au  C             1.00      2 S               6
                        (     -13.876 eV)
    98      98       --         0.371 au  C             1.00      3 S               6
                        (      10.091 eV)
    99      99       --         5.428 au  C             1.00      4 S               6
                        (     147.707 eV)
   100     100       --        50.181 au  C             1.00      5 S               6
                        (    1365.486 eV)
   101     101      0.667      -0.199 au  C             1.00      1 P:x             6
                        (      -5.403 eV)
   102     102       --         0.173 au  C             1.00      2 P:x             6
                        (       4.709 eV)
   103     103       --         2.026 au  C             1.00      3 P:x             6
                        (      55.143 eV)
   104     104      0.667      -0.199 au  C             1.00      1 P:y             6
                        (      -5.403 eV)
   105     105       --         0.173 au  C             1.00      2 P:y             6
                        (       4.709 eV)
   106     106       --         2.026 au  C             1.00      3 P:y             6
                        (      55.143 eV)
   107     107      0.667      -0.199 au  C             1.00      1 P:z             6
                        (      -5.403 eV)
   108     108       --         0.173 au  C             1.00      2 P:z             6
                        (       4.709 eV)
   109     109       --         2.026 au  C             1.00      3 P:z             6
                        (      55.143 eV)
   110     110       --         1.232 au  C             1.00      1 D:z2            6
                        (      33.528 eV)
   111     111       --         1.232 au  C             1.00      1 D:x2-y2         6
                        (      33.528 eV)
   112     112       --         1.232 au  C             1.00      1 D:xy            6
                        (      33.528 eV)
   113     113       --         1.232 au  C             1.00      1 D:xz            6
                        (      33.528 eV)
   114     114       --         1.232 au  C             1.00      1 D:yz            6
                        (      33.528 eV)
   115     115      1.000      -0.244 au  H             1.00      1 S               7
                        (      -6.626 eV)
   116     116       --         0.093 au  H             1.00      2 S               7
                        (       2.536 eV)
   117     117       --         1.515 au  H             1.00      3 S               7
                        (      41.236 eV)
   118     118       --         0.400 au  H             1.00      1 P:x             7
                        (      10.872 eV)
   119     119       --         0.400 au  H             1.00      1 P:y             7
                        (      10.872 eV)
   120     120       --         0.400 au  H             1.00      1 P:z             7
                        (      10.872 eV)
   121     121      1.000      -0.244 au  H             1.00      1 S               8
                        (      -6.626 eV)
   122     122       --         0.093 au  H             1.00      2 S               8
                        (       2.536 eV)
   123     123       --         1.515 au  H             1.00      3 S               8
                        (      41.236 eV)
   124     124       --         0.400 au  H             1.00      1 P:x             8
                        (      10.872 eV)
   125     125       --         0.400 au  H             1.00      1 P:y             8
                        (      10.872 eV)
   126     126       --         0.400 au  H             1.00      1 P:z             8
                        (      10.872 eV)
   127     127      1.000      -0.244 au  H             1.00      1 S               9
                        (      -6.626 eV)
   128     128       --         0.093 au  H             1.00      2 S               9
                        (       2.536 eV)
   129     129       --         1.515 au  H             1.00      3 S               9
                        (      41.236 eV)
   130     130       --         0.400 au  H             1.00      1 P:x             9
                        (      10.872 eV)
   131     131       --         0.400 au  H             1.00      1 P:y             9
                        (      10.872 eV)
   132     132       --         0.400 au  H             1.00      1 P:z             9
                        (      10.872 eV)
   133     133      1.000      -0.244 au  H             1.00      1 S              10
                        (      -6.626 eV)
   134     134       --         0.093 au  H             1.00      2 S              10
                        (       2.536 eV)
   135     135       --         1.515 au  H             1.00      3 S              10
                        (      41.236 eV)
   136     136       --         0.400 au  H             1.00      1 P:x            10
                        (      10.872 eV)
   137     137       --         0.400 au  H             1.00      1 P:y            10
                        (      10.872 eV)
   138     138       --         0.400 au  H             1.00      1 P:z            10
                        (      10.872 eV)
   139     139      1.000      -0.244 au  H             1.00      1 S              11
                        (      -6.626 eV)
   140     140       --         0.093 au  H             1.00      2 S              11
                        (       2.536 eV)
   141     141       --         1.515 au  H             1.00      3 S              11
                        (      41.236 eV)
   142     142       --         0.400 au  H             1.00      1 P:x            11
                        (      10.872 eV)
   143     143       --         0.400 au  H             1.00      1 P:y            11
                        (      10.872 eV)
   144     144       --         0.400 au  H             1.00      1 P:z            11
                        (      10.872 eV)
   145     145      1.000      -0.244 au  H             1.00      1 S              12
                        (      -6.626 eV)
   146     146       --         0.093 au  H             1.00      2 S              12
                        (       2.536 eV)
   147     147       --         1.515 au  H             1.00      3 S              12
                        (      41.236 eV)
   148     148       --         0.400 au  H             1.00      1 P:x            12
                        (      10.872 eV)
   149     149       --         0.400 au  H             1.00      1 P:y            12
                        (      10.872 eV)
   150     150       --         0.400 au  H             1.00      1 P:z            12
                        (      10.872 eV)



 ================================
 (Slater-type)  F U N C T I O N S  ***  (Basis and Fit)  ***
 ================================
  

 Atom Type    1  (C)
 ==============

 Valence Basis Sets:   9
 -----------------------
   1 S    7.680000
   1 S    5.000000
   2 S    1.280000
   2 S    2.100000
   2 S    4.600000
   2 P    0.820000
   2 P    1.480000
   2 P    2.940000
   3 D    2.200000

 Atom Type    2  (H)
 ==============

 Valence Basis Sets:   4
 -----------------------
   1 S    0.690000
   1 S    0.920000
   1 S    1.580000
   2 P    1.250000


 BAS: List of all Elementary Cartesian Basis Functions
 =====================================================

 The numbering in the list below (to the right of the function characteristics) is referred
 to in print-outs of MO eigenvectors and Mulliken populations in the BAS representation
 (as contrasted to the SFO representation).

 Notes:
 1. The functions are characterized by a polynomial prefactor (powers of x,y,z and r) and
    an exponential decay factor alpha.
 2. Since the basis sets are specific for an atom TYPE, the individual functions occur on
    all atoms of that type.
 3. The word 'Core' in the left margin signals that it is a Core Function (CF) : not a
    degree of freedom in the valence set, but only used to ensure orthogonalization of
    the other valence basis functions on the frozen Core Orbitals.


 (power of) X  Y  Z  R     Alpha  on Atom
            ==========     =====     ==========

 C                                    1    2    3    4    5    6
                                  ---------------------------------------------------------------------------
            0  0  0  0     7.680      1   21   41   61   81  101
            0  0  0  0     5.000      2   22   42   62   82  102
            0  0  0  1     1.280      3   23   43   63   83  103
            0  0  0  1     2.100      4   24   44   64   84  104
            0  0  0  1     4.600      5   25   45   65   85  105
            1  0  0  0     0.820      6   26   46   66   86  106
            0  1  0  0     0.820      7   27   47   67   87  107
            0  0  1  0     0.820      8   28   48   68   88  108
            1  0  0  0     1.480      9   29   49   69   89  109
            0  1  0  0     1.480     10   30   50   70   90  110
            0  0  1  0     1.480     11   31   51   71   91  111
            1  0  0  0     2.940     12   32   52   72   92  112
            0  1  0  0     2.940     13   33   53   73   93  113
            0  0  1  0     2.940     14   34   54   74   94  114
            2  0  0  0     2.200     15   35   55   75   95  115
            1  1  0  0     2.200     16   36   56   76   96  116
            1  0  1  0     2.200     17   37   57   77   97  117
            0  2  0  0     2.200     18   38   58   78   98  118
            0  1  1  0     2.200     19   39   59   79   99  119
            0  0  2  0     2.200     20   40   60   80  100  120

 H                                    7    8    9   10   11   12
                                  ---------------------------------------------------------------------------
            0  0  0  0     0.690    121  127  133  139  145  151
            0  0  0  0     0.920    122  128  134  140  146  152
            0  0  0  0     1.580    123  129  135  141  147  153
            1  0  0  0     1.250    124  130  136  142  148  154
            0  1  0  0     1.250    125  131  137  143  149  155
            0  0  1  0     1.250    126  132  138  144  150  156

 Total number of charge fitting functions (nprimf)       804
 Total number of Cartesian basis functions (naos)        156
 Total number of Cartesian core functions  (ncos)          0

1
 ***************************************************************************************************



                                              ***********************
                                              *  T E C H N I C A L  *
                                              ***********************
  



 =============================================================
 P A R A L L E L I Z A T I O N  and  V E C T O R I Z A T I O N
 =============================================================
  
 Nr of parallel processes:                                6
 Maximum vector length in NumInt loops:                 128



 =====================
 S C F   U P D A T E S
 =====================
  
 Max. nr. of cycles:                               300
 Convergence criterion:                              0.0000010000
   secondary criterion:                              0.0010000000

 Mix parameter (when DIIS does not apply):           0.2000000000
 Mixed ADIIS+SDIIS will be used                  
    Max number of expansion vectors:                10
    Pure ADIIS when Max([F,P]) is above              0.1000000000
    Pure SDIIS when Max([F,P]) is below              0.0010000000
 Automatic ElectronSmearing (in case of problematic SCF convergence) disabled



 =================
 P R E C I S I O N  ***  (General: NumInt, NeglectFunctionTails, ...)  ***
 =================
  

 NumInt:           Target precision:                 4.0000000000
 -------           Initial precision:                4.0000000000
                   Min. precision (optimization):    4.0000000000

 Neglect Functions:          Basis functions:        0.1000000000E-13
 ------------------          Fit functions:          0.1000000000E-13



 ===========================
 L I N E A R   S C A L I N G
 ===========================
  

 Cut-off radii density fit:                        0.1000000000E-07
 Overlap cut-off criterion AO matrix elements:     0.1000000000E-05
 Cut-offs for Coulomb potential and fitted density:0.1000000000E-07
 Cut-off criterion for Coulomb multipole terms:    0.1000000000E-07
 Progressive Convergence parameter:                 0.000000000    
1
 ***************************************************************************************************



                                            ***************************
                                            *  C O M P U T A T I O N  *
                                            ***************************
  

 Number of elements of the density matrix on this node (used, total):      1962     12246



 ===========================================
 Numerical Integration : Fuzzy Cells (Becke)
 ===========================================
  
 Becke grid quality: NORMAL         
  
 Lebedev angular grid order:             min:  11 max:  23
 Nr. of radial points:                   min:  46 max:  52

 Total nr. of points:      75660
 Nr. of blocks:              592
 Block length:               128
 Nr. of dummy points:        116


 Test of Precision of the Numerical Integration Grid
 ===================================================

 Integral of the Total Core Density:                   0.00000000000000



 ========================
 Density Fitting (zlmFit)
 ========================
  
 ZlmFit Fit Quality: NORMAL         
  
 Max L-expansion:                        min:   5 max:   6
 Nr. of radial interpolation points:     min:  36 max:  48



 =====
 S C F  ***  ScaSCF  ***
 =====
  
 Initial density matrix is calculated as sum of fragments

 CYCLE    1
 SCF Error: norm([F,P])=      5.990928732827, max([F,P])=      0.980189163766
 orbitals (Q,E):
 ---------------
 A :12...31          ( 2.00    -0.6583)  ( 2.00    -0.6250)  ( 2.00    -0.5884)  ( 2.00    -0.5691)
                     ( 2.00    -0.5690)  ( 2.00    -0.5031)  ( 2.00    -0.5016)  ( 2.00    -0.5015)
                     ( 2.00    -0.4056)  ( 2.00    -0.4054)  ( 0.00    -0.2152)  ( 0.00    -0.2150)
                     ( 0.00    -0.0768)  ( 0.00    -0.0731)  ( 0.00    -0.0376)  ( 0.00    -0.0374)
                     ( 0.00    -0.0113)  ( 0.00    -0.0109)  ( 0.00     0.0270)  ( 0.00     0.0510)

 CYCLE    2
   MIX coefficients:  0.8000  0.2000
 SCF Error: norm([F,P])=      0.892319195085, max([F,P])=      0.187275499592
 orbitals (Q,E):
 ---------------
 A :12...22          ( 2.00    -0.5946)  ( 2.00    -0.5421)  ( 2.00    -0.5328)  ( 2.00    -0.5022)
                     ( 2.00    -0.5021)  ( 2.00    -0.4366)  ( 2.00    -0.4344)  ( 2.00    -0.4343)
                     ( 2.00    -0.3389)  ( 2.00    -0.3388)  ( 0.00    -0.1502)

 CYCLE    3
  SDIIS (wt  0.000): -1.2669  2.2669
 A-DIIS (wt  1.000):  0.0000  1.0000
  DIIS coefficients:  0.0000  1.0000
 SCF Error: norm([F,P])=      0.521449386563, max([F,P])=      0.102682549015
 orbitals (Q,E):
 ---------------
 A :12...22          ( 2.00    -0.3985)  ( 2.00    -0.3564)  ( 2.00    -0.2966)  ( 2.00    -0.2964)
                     ( 2.00    -0.2951)  ( 2.00    -0.2475)  ( 2.00    -0.2228)  ( 2.00    -0.2226)
                     ( 2.00    -0.1498)  ( 2.00    -0.1498)  ( 0.00     0.0285)

 CYCLE    4
  SDIIS (wt  0.000):  0.1837  0.3521  0.4642
 A-DIIS (wt  1.000):  0.0000  0.6402  0.3598
  DIIS coefficients:  0.0000  0.6402  0.3598
 SCF Error: norm([F,P])=      0.743245078670, max([F,P])=      0.172769693233
 orbitals (Q,E):
 ---------------
 A :12...22          ( 2.00    -0.4673)  ( 2.00    -0.4038)  ( 2.00    -0.3933)  ( 2.00    -0.3708)
                     ( 2.00    -0.3707)  ( 2.00    -0.3293)  ( 2.00    -0.2970)  ( 2.00    -0.2969)
                     ( 2.00    -0.2286)  ( 2.00    -0.2285)  ( 0.00    -0.0405)

 CYCLE    5
  SDIIS (wt  0.902): -0.0172  0.2159  0.0732  0.7280
 A-DIIS (wt  0.098):  0.0000  0.0000  0.0000  1.0000
  DIIS coefficients: -0.0155  0.1947  0.0660  0.7548
 SCF Error: norm([F,P])=      0.076223011391, max([F,P])=      0.010735321037
 orbitals (Q,E):
 ---------------
 A :12...22          ( 2.00    -0.4793)  ( 2.00    -0.4187)  ( 2.00    -0.4084)  ( 2.00    -0.3827)
                     ( 2.00    -0.3826)  ( 2.00    -0.3380)  ( 2.00    -0.3110)  ( 2.00    -0.3109)
                     ( 2.00    -0.2384)  ( 2.00    -0.2383)  ( 0.00    -0.0511)

 CYCLE    6
  SDIIS (wt  0.993): -0.0029  0.0315  0.0082  0.1926  0.7705
 A-DIIS (wt  0.007):  0.0000  0.0000  0.0000  0.0000  1.0000
  DIIS coefficients: -0.0028  0.0313  0.0082  0.1913  0.7721
 SCF Error: norm([F,P])=      0.010710911867, max([F,P])=      0.001694605301
 orbitals (Q,E):
 ---------------
 A :12...22          ( 2.00    -0.4790)  ( 2.00    -0.4180)  ( 2.00    -0.4073)  ( 2.00    -0.3825)
                     ( 2.00    -0.3824)  ( 2.00    -0.3374)  ( 2.00    -0.3104)  ( 2.00    -0.3103)
                     ( 2.00    -0.2377)  ( 2.00    -0.2376)  ( 0.00    -0.0503)

 CYCLE    7
  SDIIS (wt  1.000):  0.0009  0.0019  0.0002  0.0230  0.1215  0.8526
  DIIS coefficients:  0.0009  0.0019  0.0002  0.0230  0.1215  0.8526
 SCF Error: norm([F,P])=      0.001129335682, max([F,P])=      0.000267889042
 orbitals (Q,E):
 ---------------
 A :12...22          ( 2.00    -0.4791)  ( 2.00    -0.4181)  ( 2.00    -0.4075)  ( 2.00    -0.3826)
                     ( 2.00    -0.3825)  ( 2.00    -0.3376)  ( 2.00    -0.3105)  ( 2.00    -0.3104)
                     ( 2.00    -0.2379)  ( 2.00    -0.2378)  ( 0.00    -0.0505)

 CYCLE    8
  SDIIS (wt  1.000):  0.0005  0.0004  0.0000  0.0083  0.0468  0.3819  0.5621
  DIIS coefficients:  0.0005  0.0004  0.0000  0.0083  0.0468  0.3819  0.5621
 SCF Error: norm([F,P])=      0.000275942369, max([F,P])=      0.000067940375
 orbitals (Q,E):
 ---------------
 A :12...22          ( 2.00    -0.4791)  ( 2.00    -0.4181)  ( 2.00    -0.4075)  ( 2.00    -0.3826)
                     ( 2.00    -0.3825)  ( 2.00    -0.3376)  ( 2.00    -0.3105)  ( 2.00    -0.3104)
                     ( 2.00    -0.2379)  ( 2.00    -0.2378)  ( 0.00    -0.0505)

 CYCLE    9
  SDIIS (wt  1.000):  0.0001 -0.0002 -0.0000 -0.0004 -0.0008  0.0143  0.3868  0.6003
  DIIS coefficients:  0.0001 -0.0002 -0.0000 -0.0004 -0.0008  0.0143  0.3868  0.6003
 SCF Error: norm([F,P])=      0.000170853025, max([F,P])=      0.000043526113
 orbitals (Q,E):
 ---------------
 A :12...22          ( 2.00    -0.4791)  ( 2.00    -0.4181)  ( 2.00    -0.4076)  ( 2.00    -0.3826)
                     ( 2.00    -0.3825)  ( 2.00    -0.3376)  ( 2.00    -0.3106)  ( 2.00    -0.3104)
                     ( 2.00    -0.2379)  ( 2.00    -0.2378)  ( 0.00    -0.0505)

 CYCLE   10
  SDIIS (wt  1.000):  0.0000 -0.0001 -0.0000 -0.0002 -0.0004  0.0053  0.1504  0.2347  0.6103
  DIIS coefficients:  0.0000 -0.0001 -0.0000 -0.0002 -0.0004  0.0053  0.1504  0.2347  0.6103
 SCF Error: norm([F,P])=      0.000006716534, max([F,P])=      0.000001423710
 orbitals (Q,E):
 ---------------
 A :12...22          ( 2.00    -0.4791)  ( 2.00    -0.4181)  ( 2.00    -0.4076)  ( 2.00    -0.3826)
                     ( 2.00    -0.3825)  ( 2.00    -0.3376)  ( 2.00    -0.3106)  ( 2.00    -0.3104)
                     ( 2.00    -0.2379)  ( 2.00    -0.2378)  ( 0.00    -0.0505)

 CYCLE   11
  SDIIS (wt  1.000):  0.0000 -0.0000 -0.0000  0.0000 -0.0000 -0.0002 -0.0026 -0.0031  0.5587  0.4472
  DIIS coefficients:  0.0000 -0.0000 -0.0000  0.0000 -0.0000 -0.0002 -0.0026 -0.0031  0.5587  0.4472
 SCF Error: norm([F,P])=      0.000008196291, max([F,P])=      0.000001850236
 orbitals (Q,E):
 ---------------
 A :12...22          ( 2.00    -0.4791)  ( 2.00    -0.4181)  ( 2.00    -0.4076)  ( 2.00    -0.3826)
                     ( 2.00    -0.3825)  ( 2.00    -0.3376)  ( 2.00    -0.3106)  ( 2.00    -0.3104)
                     ( 2.00    -0.2379)  ( 2.00    -0.2378)  ( 0.00    -0.0505)

 CYCLE   12
  SDIIS (wt  1.000): -0.0000 -0.0000  0.0000 -0.0000 -0.0001 -0.0018 -0.0024  0.1500  0.1214  0.7330
  DIIS coefficients: -0.0000 -0.0000  0.0000 -0.0000 -0.0001 -0.0018 -0.0024  0.1500  0.1214  0.7330
 SCF Error: norm([F,P])=      0.000000106762, max([F,P])=      0.000000018946
 orbitals (Q,E):
 ---------------
 A :12...22          ( 2.00    -0.4791)  ( 2.00    -0.4181)  ( 2.00    -0.4076)  ( 2.00    -0.3826)
                     ( 2.00    -0.3825)  ( 2.00    -0.3376)  ( 2.00    -0.3106)  ( 2.00    -0.3104)
                     ( 2.00    -0.2379)  ( 2.00    -0.2378)  ( 0.00    -0.0505)

 SCF CONVERGED

 CYCLE   13
1
 ***************************************************************************************************



                                                *******************
                                                *  R E S U L T S  *
                                                *******************
  
 *** Using FIT density in Focky
  SDIIS (wt  1.000): -0.0000  0.0000 -0.0000 -0.0000 -0.0006 -0.0008  0.0506  0.0411  0.4719  0.4379
  DIIS coefficients: -0.0000  0.0000 -0.0000 -0.0000 -0.0006 -0.0008  0.0506  0.0411  0.4719  0.4379
 SCF Error: norm([F,P])=      0.000000094016, max([F,P])=      0.000000020088

 Orbital Energies, per Irrep and Spin:
 ======================================
                        Occup              E (au)              E (eV)       Diff (eV) with prev. cycle
                        -----      --------------------        ------       --------------------------
 A
              12        2.000     -0.47913347474309E+00       -13.038              -6.55E-09
              13        2.000     -0.41811090696559E+00       -11.377              -6.51E-09
              14        2.000     -0.40755076588968E+00       -11.090              -1.59E-10
              15        2.000     -0.38263325384935E+00       -10.412              -3.19E-09
              16        2.000     -0.38252622758288E+00       -10.409              -6.82E-09
              17        2.000     -0.33757875603112E+00        -9.186              -4.43E-09
              18        2.000     -0.31055547353339E+00        -8.451              -6.72E-10
              19        2.000     -0.31044841046442E+00        -8.448              -5.77E-09
              20        2.000     -0.23790496574749E+00        -6.474               1.59E-10
              21        2.000     -0.23779606394889E+00        -6.471              -7.02E-09
              22        0.000     -0.50489441871354E-01        -1.374
              23        0.000     -0.50228291467153E-01        -1.367
              24        0.000      0.20344452028614E-02         0.055
              25        0.000      0.27799446555945E-01         0.756
              26        0.000      0.27901241797508E-01         0.759
              27        0.000      0.60610416266974E-01         1.649
              28        0.000      0.60864506028160E-01         1.656
              29        0.000      0.90659123951569E-01         2.467
              30        0.000      0.96119120845899E-01         2.616
              31        0.000      0.14212311630427E+00         3.867
  
 HOMO :       21 A                -0.23779606394889E+00
 LUMO :       22 A                -0.50489441871354E-01
  


 All Electron Calculation, thus no Orbital Energies of the Core Orbitals are calculated


 Fit test: (difference of exact and fit density, squared integrated, result summed over spins)
         Sum-of-Fragments:                             0.00000000048365
         Orthogonalized Fragments:                     0.00013299693185
         SCF:                                          0.00048706379439



 ==========================
 Electron Density at Nuclei
 ==========================
  
 The electron density is calculated at points on a small sphere around the center of a nucleus.
 The printed electron density is the average electron density on these points.
 The radius of the sphere is the printed approximate finite nuclear radius.

         Atom        Nuclear Radius (Angstrom)             Electron Density (a.u.)
         ----        -------------------------             -----------------------
     1)   C                 0.0000320678                              126.51474
     2)   C                 0.0000320678                              126.51556
     3)   C                 0.0000320678                              126.51449
     4)   C                 0.0000320678                              126.51474
     5)   C                 0.0000320678                              126.51555
     6)   C                 0.0000320678                              126.51447
     7)   H                 0.0000181514                                0.49873
     8)   H                 0.0000181514                                0.49868
     9)   H                 0.0000181514                                0.49866
    10)   H                 0.0000181514                                0.49873
    11)   H                 0.0000181514                                0.49863
    12)   H                 0.0000181514                                0.49866



 =======================================
 M U L L I K E N   P O P U L A T I O N S
 =======================================
  
 The survey below gives for each atom:
 a) the total charge (Z minus electrons)
 b) the net spin polarization (nr of electrons spin-A minus spin-B)
 c) for each spin the atomic electron valence density (integrated) per L-value.

 Atom              Charge    Spin density          S         P         D         F
 ----              ------    ------------       ------    ------    ------    ------
 1 C               0.1759                       3.0647    2.6984    0.0610    0.0000
 2 C               0.1755                       3.0651    2.6985    0.0610    0.0000
 3 C               0.1753                       3.0651    2.6987    0.0609    0.0000
 4 C               0.1759                       3.0647    2.6984    0.0610    0.0000
 5 C               0.1755                       3.0651    2.6985    0.0610    0.0000
 6 C               0.1752                       3.0652    2.6987    0.0609    0.0000
 7 H              -0.1759                       1.1045    0.0715    0.0000    0.0000
 8 H              -0.1757                       1.1042    0.0714    0.0000    0.0000
 9 H              -0.1751                       1.1037    0.0714    0.0000    0.0000
 10 H             -0.1759                       1.1044    0.0715    0.0000    0.0000
 11 H             -0.1756                       1.1042    0.0714    0.0000    0.0000
 12 H             -0.1751                       1.1037    0.0714    0.0000    0.0000

 Populations of individual BAS functions
 ----------------------------------------
 1 C            0.4869  1.5144  0.2295  0.8873 -0.0535 -0.1039  0.1474 -0.2377  0.8056  0.6780
                0.8823  0.2002  0.1366  0.1899  0.0268  0.0122  0.0174 -0.0175  0.0040  0.0181
 2 C            0.4870  1.5144  0.2299  0.8873 -0.0535 -0.2021  0.1473 -0.1397  0.8620  0.6781
                0.8265  0.1926  0.1366  0.1972  0.0180  0.0062  0.0220 -0.0175  0.0100  0.0222
 3 C            0.4870  1.5144  0.2299  0.8873 -0.0535 -0.2069  0.1474 -0.1346  0.8646  0.6781
                0.8235  0.1923  0.1366  0.1976  0.0179  0.0059  0.0216 -0.0175  0.0103  0.0227
 4 C            0.4869  1.5144  0.2295  0.8873 -0.0535 -0.1039  0.1474 -0.2377  0.8056  0.6780
                0.8823  0.2002  0.1366  0.1899  0.0268  0.0122  0.0174 -0.0175  0.0040  0.0181
 5 C            0.4870  1.5144  0.2299  0.8873 -0.0535 -0.2020  0.1473 -0.1397  0.8620  0.6781
                0.8265  0.1926  0.1366  0.1972  0.0180  0.0062  0.0220 -0.0175  0.0100  0.0222
 6 C            0.4870  1.5144  0.2300  0.8873 -0.0535 -0.2069  0.1474 -0.1345  0.8646  0.6781
                0.8235  0.1922  0.1366  0.1976  0.0179  0.0059  0.0216 -0.0175  0.0103  0.0227
 7 H            0.2098  0.5759  0.3188  0.0288  0.0217  0.0209
 8 H            0.2094  0.5760  0.3188  0.0294  0.0217  0.0203
 9 H            0.2085  0.5763  0.3189  0.0162  0.0217  0.0334
 10 H           0.2098  0.5759  0.3188  0.0288  0.0217  0.0209
 11 H           0.2093  0.5761  0.3188  0.0294  0.0217  0.0203
 12 H           0.2085  0.5763  0.3189  0.0162  0.0217  0.0334

 Gross Charges per Atom (Z minus electrons)
 ==========================================
             0.1759    0.1755    0.1753    0.1759    0.1755    0.1752   -0.1759   -0.1757   -0.1751   -0.1759
            -0.1756   -0.1751
 Net Total: -0.00000000


 Atom-Atom Population Matrix (off-diagonal elements not doubled)
 ===============================================================

     1 :     4.5226
     2 :     0.5416    4.5224
     3 :    -0.0105    0.5420    4.5225
     4 :    -0.0558   -0.0104    0.5417    4.5226
     5 :    -0.0104   -0.0555   -0.0110    0.5416    4.5224
     6 :     0.5417   -0.0110   -0.0555   -0.0105    0.5420    4.5226
     7 :    -0.0537    0.3939   -0.0535    0.0021    0.0041    0.0022    0.9821
     8 :     0.0022   -0.0535    0.3939   -0.0538    0.0022    0.0041   -0.0474    0.9818
     9 :     0.0041    0.0021   -0.0533    0.3939   -0.0533    0.0021   -0.0039   -0.0477    0.9810
    10 :     0.0021    0.0041    0.0022   -0.0537    0.3939   -0.0535    0.0015   -0.0038   -0.0477    0.9821
    11 :    -0.0538    0.0022    0.0041    0.0022   -0.0535    0.3939   -0.0038    0.0015   -0.0038   -0.0474
             0.9817
    12 :     0.3939   -0.0533    0.0021    0.0041    0.0021   -0.0533   -0.0477   -0.0038    0.0016   -0.0039
            -0.0477    0.9809



 =================================================
 H I R S H F E L D   C H A R G E   A N A L Y S I S
 =================================================
  
 For each fragment: the (numerical) integral of rho(scf) * rho(fragment)/rho(sum-of-fragments)
 (nuclear charges are included, electrons are counted negative)

 The fragments and their ordering are defined in the early G E O M E T R Y output section.
 If you use single-atom fragments, this usually implies that all atoms of the same
 chemical type are grouped together. This may not be the order in which you listed them
 in the input file!

    1  C                        -0.0463
    2  C                        -0.0463
    3  C                        -0.0463
    4  C                        -0.0463
    5  C                        -0.0463
    6  C                        -0.0463
    7  H                         0.0463
    8  H                         0.0463
    9  H                         0.0463
   10  H                         0.0463
   11  H                         0.0463
   12  H                         0.0463

 Sum of these charges (accuracy NumInt/Tails) =          -0.00005969



 =============================
 V O R O N O I   C H A R G E S
 =============================
  
 For each atom: the (numerical) integral of the total electronic charge density in its Voronoi cell,
 i.e. the region of space that is closer to that atom than to any other atom.
 (cf. Wigner-Seitz cells in crystals)

 Within the Voronoi cell the subintegrals over the atomic sphere and the remaining part are evaluated
 separately to give the numbers of electrons (negative charge) in these regions.
 The net total charge in the cell (including the nuclear charge) is also given.

 Values are provided for
    a) the Initial (sum-of-fragments) density
    b) the Orthogonalized-Fragments density
    c) the SCF density
    d) the Voronoi Deformation Density (VDD): the difference SCF-Initial for the complete atomic cell


  Atom                Initial                    OrthFrag                   SCF
             Sphere RestCell NetTotal   Sphere RestCell NetTotal   Sphere RestCell NetTotal      VDD
 -----       ------------------------   ------------------------   ------------------------    -----
    1 C      -2.269   -3.186    0.546   -2.452   -3.137    0.411   -2.303   -3.207    0.490   -0.056
    2 C      -2.269   -3.191    0.541   -2.452   -3.138    0.410   -2.303   -3.208    0.489   -0.052
    3 C      -2.269   -3.186    0.546   -2.452   -3.140    0.408   -2.303   -3.208    0.489   -0.057
    4 C      -2.269   -3.186    0.546   -2.452   -3.137    0.411   -2.303   -3.207    0.490   -0.056
    5 C      -2.269   -3.191    0.541   -2.452   -3.138    0.410   -2.303   -3.208    0.489   -0.052
    6 C      -2.269   -3.186    0.546   -2.452   -3.140    0.408   -2.303   -3.208    0.489   -0.057
    7 H      -0.075   -1.473   -0.547   -0.096   -1.317   -0.413   -0.109   -1.384   -0.493    0.055
    8 H      -0.075   -1.470   -0.545   -0.096   -1.313   -0.408   -0.109   -1.379   -0.488    0.057
    9 H      -0.075   -1.465   -0.540   -0.096   -1.312   -0.408   -0.109   -1.378   -0.487    0.053
   10 H      -0.075   -1.473   -0.548   -0.096   -1.317   -0.413   -0.109   -1.384   -0.493    0.055
   11 H      -0.075   -1.470   -0.545   -0.096   -1.313   -0.408   -0.109   -1.379   -0.488    0.057
   12 H      -0.075   -1.465   -0.540   -0.096   -1.312   -0.408   -0.109   -1.378   -0.487    0.053
 ---------------------------------------------------------------------------------------------------
 Total NetCharge:              -0.000                     -0.000                     -0.000    0.000
 (accuracy NumInt/Tails)

 Remark: the 'NetTotal' Voronoi charges often do not match the Mulliken and/or Hirshfeld charges very
 well. This is caused by the fact that chemically different atoms are not treated in accordance with
 their relative sizes. (Voronoi cells are defined by boundary planes halfway between the atoms.)
 However, the CHANGES in charge, comparing 'Initial' to 'SCF' for instance, do give a fair indication
 of the flow of charge caused by the relaxation from sum-of-fragments to self-consistency.

 Warning: the absolute accuracy of the VDD charges obtained using the Fuzzy Cells (Becke) integration
 scheme is much poorer than the one obtained with an 'equivalent' Voronoi integration grid. 



 =================================================================
 M U L T I P O L E   D E R I V E D   C H A R G E   A N A L Y S I S
 =================================================================

 This charge analysis uses the atomic multipoles (obtained from the fitted density) up to some level X,
 and reconstructs these multipoles exactly (up to level X) by distributing charges over all atoms.
 This is achieved by using Lagrange multipliers and a weight function to keep the multipoles local.

 Dummy atoms can be included (by setting INCDUM in MDC-block to 1) to obtain a fractional charge.
 This is generally useful and necessary only for small symmetrical molecules, when there are not
 enough degrees of freedom to reconstruct the multipoles.

 Since the atomic multipoles are reconstructed up to level X,
 the molecular multipoles are represented also up to level X.
 The recommended level is to reconstruct up to quadrupole : -> MDC-q charges.

 See: M. Swart, P.Th. van Duijnen, J.G. Snijders, J.Comput.Chem., (2001), p. 79-88.

 ------------------------------------------------------------- 
 Atomic electronic multipole moments from SCF equations (a.u.)
 ------------------------------------------------------------- 

   atom        charge        dip-x     dip-y     dip-z      quad-xx   quad-xy   quad-xz   quad-yy   quad-yz   quad-zz
 --------------------------------------------------------------------------------------------------------------------
    1 C      0.060852     0.000956 -0.000000 -0.047250     0.469415 -0.000000 -0.000688 -0.996699 -0.000000  0.527285
    2 C      0.060464    -0.041646  0.000000 -0.026205     0.507478 -0.000000  0.015495 -0.993805  0.000000  0.486327
    3 C      0.060601    -0.042076 -0.000000  0.024003     0.511196 -0.000000 -0.015665 -0.994851 -0.000000  0.483656
    4 C      0.060853    -0.000986  0.000000  0.047250     0.469430 -0.000000 -0.000751 -0.996701  0.000000  0.527271
    5 C      0.060463     0.041647 -0.000000  0.026196     0.507508 -0.000000  0.015489 -0.993801  0.000000  0.486293
    6 C      0.060593     0.042054  0.000000 -0.023971     0.511228 -0.000000 -0.015635 -0.994848 -0.000000  0.483620
    7 H     -0.060634    -0.019238  0.000000 -0.012239     0.159738  0.000000  0.080749 -0.195350 -0.000000  0.035612
    8 H     -0.060626    -0.019640  0.000000  0.011336     0.170150 -0.000000 -0.076881 -0.195650  0.000000  0.025500
    9 H     -0.060659    -0.000485 -0.000000  0.022607    -0.038408  0.000000 -0.003862 -0.194923 -0.000000  0.233331
   10 H     -0.060633     0.019242  0.000000  0.012234     0.159747 -0.000000  0.080748 -0.195348  0.000000  0.035601
   11 H     -0.060616     0.019660  0.000000 -0.011333     0.170162  0.000000 -0.076872 -0.195645  0.000000  0.025483
   12 H     -0.060658     0.000462  0.000000 -0.022608    -0.038413  0.000000 -0.003838 -0.194921  0.000000  0.233335

 --------------------------------------- 
 Multipole derived atomic charges (a.u.)
 --------------------------------------- 

 The MDC-m charges are just the Monopole terms in the multipole expansion, while for the MDC-d charges
 also the Dipoles are reconstructed. The usually preferred charges are the MDC-q charges.
 These reconstruct the Monopoles, Dipoles and Quadrupoles (both atomic AND molecular).

        Atom    Level:     MDC-m        MDC-d        MDC-q
 ---------------------------------------------------------
     1     C            0.060852     0.035165    -0.126195
     2     C            0.060464     0.034383    -0.127954
     3     C            0.060601     0.034523    -0.127737
     4     C            0.060853     0.035167    -0.126187
     5     C            0.060463     0.034382    -0.127959
     6     C            0.060593     0.034512    -0.127712
     7     H           -0.060634    -0.034422     0.127619
     8     H           -0.060626    -0.034700     0.127362
     9     H           -0.060659    -0.034945     0.126898
    10     H           -0.060633    -0.034423     0.127620
    11     H           -0.060616    -0.034698     0.127345
    12     H           -0.060658    -0.034945     0.126900

 ------------------------------------------------ 
 Average absolute deviations in atomic multipoles
 ------------------------------------------------ 

 Stated here are the average differences between the atomic multipoles
 and the reconstructed atomic multipoles (from the distributed charges).
 If these values are not zero, this means there are not enough degrees of freedom,
 to be able to reconstruct the atomic multipoles. (This usually happens only
 for small and/or highly symmetric molecules). If this is the case, one could add
 dummy atoms as extra point charges (and setting INCDUM in MDC-block to 1).

 Level:                                 MDC-d        MDC-q
 ---------------------------------------------------------
 Charge   (a.u.)                       0.0000       0.0000
 Dipole   (Debye)                      0.0000       0.0000
 Quad.    (a.u.)                       0.2134       0.0000

 --------------------------------------- 
 Represented molecular multipole moments
 --------------------------------------- 

 Given here are the Molecular multipole moments from the atomic charges, and from the Fit Density.
 Note that the atomic charges represent the latter, NOT the ones from the Exact density.

            Q (a.u.)             Dipole moment (Debye)                                          Quadrupole moment (a.u.)
                                 x         y         z              xx        xy        xz        yy        yz        zz
------------------------------------------------------------------------------------------------------------------------
MDC-m         0.0000        0.0001    0.0000   -0.0000         -1.3733    0.0003   -0.0013    2.7587   -0.0001   -1.3854
MDC-d         0.0000       -0.0001    0.0000    0.0000         -0.7794   -0.0003    0.0071    1.5782    0.0001   -0.7988
MDC-q        -0.0000       -0.0001   -0.0000    0.0000          2.8800   -0.0003    0.0049   -5.7911    0.0001    2.9111
 
Fit.Dens.     0.0000       -0.0001   -0.0000    0.0000          2.8800   -0.0003    0.0041   -5.7911    0.0001    2.9111



 =============
 Dipole Moment  ***  (Debye)  ***
 =============
  
 Vector   :        -0.00005987     -0.00000006      0.00002656
 Magnitude:         0.00006550

 This molecular dipole moment is calculated with analytic integration



 =========================================
 Quadrupole Moment (Buckingham convention)  ***  (a.u.)  ***
 =========================================
  
      quad-xx        quad-xy        quad-xz        quad-yy        quad-yz        quad-zz
      2.89124706    -0.00026688     0.00231397    -5.81935217     0.00011841     2.92810511

 This molecular quadrupole moment is calculated with analytic integration
1



 =======================================================
 S F O   P O P U L A T I O N S ,   M O   A N A L Y S I S
 =======================================================
  
 A Mulliken population analysis is performed on (input-)selected MOs. All populations refer to SFOs.
 BAS populations may have been printed directly after the SCF part.


                                       === A ===


 SFO contributions (%) per orbital
 (multiplication by the orbital occupation yields the SFO Gross Populations)

 Orb.:       12     13     14     15     16     17     18     19     20     21     22     23     24     25
 occup:     2.00   2.00   2.00   2.00   2.00   2.00   2.00   2.00   2.00   2.00   0.00   0.00   0.00   0.00
 CF+SFO     ----   ----   ----   ----   ----   ----   ----   ----   ----   ----   ----   ----   ----   ----
 ------
      2:    0.23   4.05   0.00   0.00   0.03  -0.00  -0.06  -0.00   0.00   0.00  -0.00   0.00  -0.24   0.04
      3:   -0.08   0.11   0.00  -0.02  -0.17  -0.00  -0.02  -0.00   0.00  -0.00  -0.00   0.00  -2.70  -0.61
      6:    0.01   0.00  14.37   0.47   0.01   0.00   0.07   9.10  -0.00  -0.00   0.00  -0.00   0.00  -0.01
      7:    0.00   0.00   1.97   0.65   0.05  -0.00   0.02   3.04  -0.00   0.00  -0.00  -0.00  -0.00  -0.09
      9:    0.00  -0.00  -0.00   0.00   0.00  17.23   0.00  -0.00  31.58   0.18   0.04  34.45  -0.00   0.00
     10:   -0.00   0.00  -0.00   0.00   0.00  -0.98   0.00  -0.00   0.11   0.00  -0.00  -3.86  -0.00   0.00
     12:   10.68   2.57   0.01   1.73  16.07  -0.00   5.83   0.04  -0.00  -0.00   0.00  -0.00   0.73   0.75
     13:    0.23   0.28   0.00   0.10   1.16  -0.00   1.46   0.00  -0.00  -0.00  -0.00   0.00  -0.52 -10.92
     17:    0.00   0.00  -0.00  -0.00  -0.00   0.00   0.00   0.00   0.00   0.61   1.14   0.00  -0.00   0.00
     21:    0.24   4.02   0.00   0.03   0.00   0.00  -0.02  -0.04  -0.00   0.00  -0.00   0.00  -0.24   0.01
     22:   -0.08   0.11  -0.00  -0.18  -0.01   0.00  -0.01  -0.01  -0.00   0.00   0.00  -0.00  -2.68  -0.11
     25:    7.84   1.94   3.79  11.99   1.18   0.00  -0.18   6.94   0.00  -0.00  -0.00   0.00   0.53   0.12
     26:    0.17   0.21   0.52   0.58   0.53  -0.00  -0.35   2.24  -0.00  -0.00  -0.00  -0.00  -0.37   0.11
     28:    0.00   0.00   0.00  -0.00  -0.00  17.21   0.00   0.00  10.08  21.68  24.80   9.70   0.00   0.00
     29:    0.00   0.00   0.00  -0.00  -0.00  -0.98  -0.00   0.00   0.04   0.08  -2.77  -1.08   0.00   0.00
     31:    2.87   0.71  10.72   5.02  -0.09   0.00   8.18   0.08   0.00  -0.00   0.00   0.00   0.19  -1.65
     32:    0.06   0.08   1.49   0.65   0.15  -0.00   2.86  -0.23   0.00   0.00  -0.00  -0.00  -0.13  -9.98
     40:    0.25   4.02   0.00   0.01   0.02   0.00  -0.01  -0.05   0.00   0.00   0.00   0.00  -0.24   0.01
     41:   -0.08   0.11  -0.00  -0.08  -0.10   0.00  -0.00  -0.02   0.00   0.00   0.00   0.00  -2.69  -0.19
     44:    8.23   2.02   3.26   4.79   9.03   0.00   0.10   6.54  -0.00  -0.00   0.00  -0.00   0.56   0.38
     45:    0.18   0.22   0.45  -0.26   1.39  -0.00  -0.16   1.99   0.00  -0.00  -0.00   0.00  -0.39  -0.01
     47:   -0.00  -0.00  -0.00   0.00  -0.00  17.21  -0.00  -0.00   5.98  25.79  26.89   7.61   0.00  -0.00
     48:   -0.00   0.00  -0.00  -0.00   0.00  -0.98   0.00  -0.00   0.02   0.09  -3.00  -0.85  -0.00   0.00
     50:    2.48   0.60  11.25   3.25   1.05  -0.00   8.53  -0.13   0.00  -0.00  -0.00   0.00   0.17  -1.56
     51:    0.06   0.06   1.56   1.17  -0.39   0.00   2.95  -0.27  -0.00   0.00  -0.00   0.00  -0.12 -10.06
     59:    0.23   4.05   0.00   0.00   0.03   0.00  -0.06  -0.00  -0.00  -0.00   0.00   0.00  -0.24   0.04
     60:   -0.08   0.11  -0.00  -0.02  -0.17   0.00  -0.02  -0.00  -0.00   0.00  -0.00   0.00  -2.70  -0.61
     63:    0.01   0.00  14.37   0.47   0.01  -0.00   0.07   9.10   0.00   0.00   0.00  -0.00   0.00  -0.01
     64:    0.00   0.00   1.97   0.65   0.05   0.00   0.02   3.04  -0.00  -0.00   0.00   0.00  -0.00  -0.09
     66:    0.00  -0.00   0.00   0.00   0.00  17.23   0.00   0.00  31.58   0.18   0.04  34.45   0.00   0.00
     67:    0.00  -0.00   0.00  -0.00   0.00  -0.98   0.00   0.00   0.11   0.00  -0.00  -3.86   0.00   0.00
     69:   10.68   2.58   0.01   1.73  16.07   0.00   5.84   0.04  -0.00   0.00   0.00   0.00   0.73   0.75
     70:    0.23   0.28   0.00   0.10   1.16   0.00   1.46   0.00  -0.00  -0.00   0.00  -0.00  -0.52 -10.92
     74:   -0.00   0.00   0.00   0.00   0.00   0.00   0.00   0.00   0.00   0.61   1.14   0.00  -0.00   0.00
     78:    0.24   4.02   0.00   0.03   0.00  -0.00  -0.02  -0.04  -0.00   0.00   0.00   0.00  -0.24   0.01
     79:   -0.08   0.11  -0.00  -0.18  -0.01  -0.00  -0.01  -0.01   0.00   0.00  -0.00  -0.00  -2.68  -0.11
     82:    7.84   1.94   3.79  12.00   1.18  -0.00  -0.18   6.93   0.00   0.00  -0.00   0.00   0.53   0.12
     83:    0.17   0.21   0.52   0.58   0.53  -0.00  -0.35   2.24  -0.00  -0.00  -0.00  -0.00  -0.37   0.11
     85:    0.00   0.00  -0.00   0.00   0.00  17.21   0.00  -0.00  10.08  21.68  24.80   9.70   0.00   0.00
     86:   -0.00   0.00  -0.00   0.00  -0.00  -0.98  -0.00  -0.00   0.04   0.08  -2.77  -1.08   0.00   0.00
     88:    2.87   0.71  10.72   5.01  -0.09  -0.00   8.18   0.08  -0.00   0.00   0.00  -0.00   0.19  -1.65
     89:    0.06   0.08   1.49   0.65   0.15  -0.00   2.86  -0.23   0.00   0.00  -0.00  -0.00  -0.13  -9.97
     97:    0.25   4.03   0.00   0.01   0.02   0.00  -0.01  -0.05   0.00   0.00  -0.00   0.00  -0.24   0.01
     98:   -0.08   0.11  -0.00  -0.08  -0.10   0.00  -0.00  -0.02   0.00  -0.00   0.00   0.00  -2.69  -0.19
    101:    8.23   2.02   3.26   4.79   9.03   0.00   0.10   6.54   0.00   0.00  -0.00   0.00   0.56   0.38
    102:    0.18   0.22   0.45  -0.26   1.39   0.00  -0.16   1.99   0.00  -0.00  -0.00  -0.00  -0.39  -0.01
    104:   -0.00  -0.00   0.00  -0.00  -0.00  17.21   0.00   0.00   5.98  25.79  26.89   7.61   0.00  -0.00
    105:    0.00   0.00   0.00  -0.00   0.00  -0.98  -0.00   0.00   0.02   0.09  -3.00  -0.85  -0.00  -0.00
    107:    2.48   0.60  11.25   3.25   1.05  -0.00   8.53  -0.13  -0.00  -0.00  -0.00   0.00   0.17  -1.56
    108:    0.06   0.06   1.56   1.17  -0.39  -0.00   2.95  -0.27  -0.00   0.00   0.00  -0.00  -0.12 -10.06
    115:    5.56   9.20   0.00  12.40   0.52   0.00   4.64   8.70   0.00   0.00   0.00   0.00   7.79   4.21
    116:   -0.02   0.16   0.00   0.15   0.01   0.00  -0.07  -0.13   0.00   0.00   0.00   0.00  11.25   6.23
    121:    5.56   9.17   0.00   5.74   7.21  -0.00   2.18  11.16   0.00   0.00   0.00  -0.00   7.80   6.99
    122:   -0.02   0.16   0.00   0.07   0.09  -0.00  -0.03  -0.16   0.00   0.00   0.00  -0.00  11.26  10.36
    125:    0.00   0.00   0.00   0.00   0.00   0.25   0.00   0.00   0.16   0.67   1.07   0.30  -0.00  -0.00
    127:    5.49   9.09   0.00   1.30  11.71  -0.00  13.23   0.15   0.00   0.00   0.00   0.00   7.84  21.80
    128:   -0.02   0.16   0.00   0.02   0.14   0.00  -0.19  -0.00  -0.00   0.00   0.00   0.00  11.31  32.41
    131:   -0.00  -0.00  -0.00   0.00  -0.00   0.25   0.00  -0.00   0.83   0.00   0.00   1.37   0.00  -0.00
    133:    5.56   9.20   0.00  12.40   0.52   0.00   4.64   8.70   0.00   0.00   0.00   0.00   7.79   4.21
    134:   -0.02   0.16   0.00   0.15   0.01  -0.00  -0.07  -0.13   0.00   0.00   0.00   0.00  11.25   6.23
    139:    5.56   9.17   0.00   5.74   7.21   0.00   2.18  11.16  -0.00  -0.00   0.00   0.00   7.80   6.99
    140:   -0.02   0.16   0.00   0.07   0.09   0.00  -0.03  -0.16   0.00  -0.00   0.00   0.00  11.27  10.36
    143:   -0.00  -0.00  -0.00  -0.00   0.00   0.25   0.00  -0.00   0.16   0.67   1.07   0.30   0.00   0.00
    145:    5.49   9.09  -0.00   1.30  11.71  -0.00  13.23   0.15   0.00   0.00   0.00   0.00   7.84  21.80
    146:   -0.02   0.16   0.00   0.02   0.14  -0.00  -0.19  -0.00   0.00   0.00  -0.00  -0.00  11.31  32.40
    149:    0.00  -0.00   0.00  -0.00   0.00   0.25  -0.00  -0.00   0.83   0.00   0.00   1.37   0.00   0.00


 Summation over all MOs, multiplied by occupation: Total SFO Gross Populations in this Irrep
 ===========================================================================================

     2.00    1.07   -0.01   -0.00   -0.00    0.84    0.07   -0.01    0.98   -0.02   -0.00    0.81
     0.03   -0.01    0.02    0.01    0.01    0.02    0.00    2.00    1.07   -0.01   -0.00   -0.00
     0.82    0.04   -0.01    0.98   -0.02   -0.00    0.83    0.06   -0.01    0.02    0.01    0.01
     0.02    0.01    2.00    1.07   -0.01   -0.00   -0.00    0.82    0.04   -0.01    0.98   -0.02
    -0.00    0.83    0.06   -0.01    0.02    0.01    0.01    0.02    0.01    2.00    1.07   -0.01
    -0.00   -0.00    0.84    0.07   -0.01    0.98   -0.02   -0.00    0.81    0.03   -0.01    0.02
     0.01    0.01    0.02    0.00    2.00    1.07   -0.01   -0.00   -0.00    0.82    0.04   -0.01
     0.98   -0.02   -0.00    0.83    0.06   -0.01    0.02    0.01    0.01    0.02    0.01    2.00
     1.07   -0.01   -0.00   -0.00    0.82    0.04   -0.01    0.98   -0.02   -0.00    0.83    0.06
    -0.01    0.02    0.01    0.01    0.02    0.01    1.11   -0.00   -0.00    0.03    0.02    0.02
     1.11   -0.00   -0.00    0.03    0.02    0.02    1.11   -0.00   -0.00    0.02    0.02    0.03
     1.11   -0.00   -0.00    0.03    0.02    0.02    1.11   -0.00   -0.00    0.03    0.02    0.02
     1.11   -0.00   -0.00    0.02    0.02    0.03



 List of all MOs, ordered by energy, with the most significant SFO gross populations
 ===================================================================================

 Each percentage contribution in the table below corresponds to the indicated SFO.
 In general, a SFO may be a linear combination of several Fragment Orbitals on the same,
 or on symmetry-related Fragments. Only the first 'member' of such a combination is
 specified here. A full definition of all SFOs is given in an earlier part of the output.
 The numbering of the SFOs in this table does NOT include the Core Orbitals, and starts
 from one for each symmetry representation, as in the SFO definition list earlier.

       E(eV)  Occ       MO           %     SFO (first member)   E(eV)  Occ   Fragment
 -------------------------------------------------------------------------------------

     -21.394  2.00     7 A         14.60%     2 S             -13.876  2.00     4 C
                                   14.60%     2 S             -13.876  2.00     1 C
                                   14.59%     2 S             -13.876  2.00     5 C
                                   14.59%     2 S             -13.876  2.00     2 C
                                   14.59%     2 S             -13.876  2.00     3 C
                                   14.59%     2 S             -13.876  2.00     6 C
                                    2.37%     1 P:z            -5.403  0.67     4 C
                                    2.37%     1 P:z            -5.403  0.67     1 C
                                    1.83%     1 P:x            -5.403  0.67     6 C
                                    1.83%     1 P:x            -5.403  0.67     3 C
                                    1.74%     1 P:x            -5.403  0.67     5 C
                                    1.74%     1 P:x            -5.403  0.67     2 C
                                    1.24%     1 S              -6.626  1.00     9 H
                                    1.24%     1 S              -6.626  1.00    12 H
                                    1.24%     1 S              -6.626  1.00     7 H
                                    1.24%     1 S              -6.626  1.00    10 H
                                    1.23%     1 S              -6.626  1.00     8 H
                                    1.23%     1 S              -6.626  1.00    11 H
     -18.623  2.00     8 A         22.48%     2 S             -13.876  2.00     1 C
                                   22.48%     2 S             -13.876  2.00     4 C
                                    9.15%     2 S             -13.876  2.00     2 C
                                    9.15%     2 S             -13.876  2.00     5 C
                                    5.53%     1 S              -6.626  1.00    12 H
                                    5.53%     1 S              -6.626  1.00     9 H
                                    3.53%     1 P:z            -5.403  0.67     3 C
                                    3.53%     1 P:z            -5.403  0.67     6 C
                                    2.96%     2 S             -13.876  2.00     3 C
                                    2.96%     2 S             -13.876  2.00     6 C
                                    2.26%     1 S              -6.626  1.00     7 H
                                    2.26%     1 S              -6.626  1.00    10 H
                                    2.05%     1 P:z            -5.403  0.67     2 C
                                    2.05%     1 P:z            -5.403  0.67     5 C
                                    1.44%     1 P:x            -5.403  0.67     6 C
                                    1.44%     1 P:x            -5.403  0.67     3 C
                                   -1.38%     2 P:z             4.709  0.00     3 C
                                   -1.38%     2 P:z             4.709  0.00     6 C
                                    1.34%     1 P:x            -5.403  0.67     2 C
                                    1.34%     1 P:x            -5.403  0.67     5 C
                                   -1.15%     2 P:z             4.709  0.00     2 C
                                   -1.15%     2 P:z             4.709  0.00     5 C
     -18.618  2.00     9 A         20.11%     2 S             -13.876  2.00     6 C
[...]
 iter.  3 V(1) measure  0.8864029528370E+05
        3        delta  0.8929267624023E+03
 CRIT   101.954667027802     
 iter.  4 V(1) measure  0.8926353764459E+05
        4        delta  0.6232423608934E+03
 CRIT   12.2553500054014     
 iter.  5 V(1) measure  0.8937112404219E+05
        5        delta  0.1075863975937E+03
 CRIT   1.91708675721387     
 iter.  6 V(1) measure  0.8937995008577E+05
        6        delta  0.8826043583875E+01
 CRIT   1.35419645243854     
 iter.  7 V(1) measure  0.8937218483157E+05
        7        delta  0.7765254199461E+01
 CRIT  0.145098909281899     
 iter.  8 V(1) measure  0.8937133238571E+05
        8        delta  0.8524458583561E+00
 CRIT  4.910475270735543E-002
 iter.  9 V(1) measure  0.8937110607144E+05
        9        delta  0.2263142679876E+00
 CRIT  5.213715791274261E-002
 iter. 10 V(1) measure  0.8937090332850E+05
       10        delta  0.2027429391746E+00
 CRIT  8.259000239128702E-003
 iter. 11 V(1) measure  0.8937091894987E+05
       11        delta  0.1562136203574E-01
 *** convergence reached

    RRIJmat_z_z         
    using first order VWN potential
 
    NOTE: We will NOT use the GGA kernel (input option ALDA was set)
 
 CRIT   1.00000000000000     
 iter.  1 V(1) measure  0.1301990713841E+04
 *** convergence criterion : .1301991E-02
 CRIT   151.165032560080     
 iter.  2 V(1) measure  0.1073238542475E+04
        2        delta  0.2287521713659E+03
 CRIT   57.6179321870237     
 iter.  3 V(1) measure  0.1108829355597E+04
        3        delta  0.3559081312143E+02
 CRIT   16.0075735741558     
 iter.  4 V(1) measure  0.1114394889433E+04
        4        delta  0.5565533835785E+01
 CRIT   3.64850945682112     
 iter.  5 V(1) measure  0.1115293204480E+04
        5        delta  0.8983150472438E+00
 CRIT   1.56076669818070     
 iter.  6 V(1) measure  0.1115392380014E+04
        6        delta  0.9917553378182E-01
 CRIT  0.200650421325176     
 iter.  7 V(1) measure  0.1115392354938E+04
        7        delta  0.2507523618078E-04
 *** convergence reached
 ------------------------------------------
 Convergence acceleration: T
 QUADRUPOLE-QUADRUPOLE POLARIZABILITY     
 Frequency  =  0.1322975682     Hartrees
 Wavelength =   344.4005294     nm
 Wavenumber =   29035.96001     cm^{-1}
 Energy     =   3.600000000     eV
 ------------------------------------------
 QUADRUPOLE-QUADRUPOLE Polarizability tensor:
 
 xx xx     4186.22381045729     
 xx xy    0.158378765705991     
 xx xz   -0.389043932297019     
 xx yy    -4990.66510413435     
 xx yz   -4.750055974258771E-002
 xx zz     804.441293677064     
 xy xx    0.159013294574010     
 xy xy     12588.1157547257     
 xy xz   -0.104131790110766     
 xy yy   -4.493538291814640E-002
 xy yz   -0.729446923277973     
 xy zz   -0.114077911603862     
 xz xx   -0.389886968880001     
 xz xy   -0.104291193719925     
 xz xz     1695.29003870334     
 xz yy    0.160841211769464     
 xz yz   -7.417736427500959E-003
 xz zz    0.229045757107030     
 yy xx    -4990.77943792837     
 yy xy    0.497646993860470     
 yy xz    0.142260325908340     
 yy yy     9983.79828627889     
 yy yz   -0.233120526151870     
 yy zz    -4993.01884835053     
 yz xx   -4.764253315833145E-002
 yz xy   -0.778382747655350     
 yz xz   -7.350896343657987E-003
 yz yy    2.053527933800137E-002
 yz yz     12594.3472446060     
 yz zz    2.710725381919099E-002
 zz xx     804.488994047392     
 zz xy    1.523725347445280E-002
 zz xz    0.235246194708712     
 zz yy    -4993.05674796016     
 zz yz   -9.877353932072008E-003
 zz zz     4188.56775391278     
 
 Imaginary QUADRUPOLE-QUADRUPOLE Polarizability tensor:
 
 xx xx     18.6901170661324     
 xx xy    1.907911623207490E-003
 xx xz   -3.388773505305345E-003
 xx yy    -21.5566355076048     
 xx yz   -9.169991279601641E-004
 xx zz     2.86651844147265     
 xy xx    1.355646806087495E-003
 xy xy     124.978210233642     
 xy xz   -1.152714813199874E-003
 xy yy   -7.148650122505035E-004
 xy yz   -1.882518821933765E-003
 xy zz   -6.407817941208420E-004
 xz xx   -3.239060014971587E-003
 xz xy   -1.270626407506548E-003
 xz xz     7.94579732143799     
 xz yy    1.259908469638321E-003
 xz yz   -1.599005692826948E-004
 xz zz    1.979151545308845E-003
 yy xx    -21.4895347667939     
 yy xy    0.125912930280428     
 yy xz    5.752677332238962E-004
 yy yy     42.9868866736002     
 yy yz   -5.958544957990564E-002
 yy zz    -21.4973519068063     
 yz xx   -7.307716330107426E-004
 yz xy   -1.006942500564518E-002
 yz xz   -7.168944713617417E-005
 yz yy    2.922688027227824E-004
 yz yz     124.964266932031     
 yz zz    4.385028302489231E-004
 zz xx     2.88754409533026     
 zz xy    6.585606785266938E-002
 zz xz    2.009056298060123E-003
 zz yy    -21.5223725233197     
 zz yz   -1.816140632034432E-002
 zz zz     18.6348284279893     



 =======================================================================
 Electrostatic potential at the Nuclei due to electrons and other nuclei
 =======================================================================
  
         Atom                  Potential
         ----                  ---------
     1)   C                  14.76899296
     2)   C                  14.76875075
     3)   C                  14.76870232
     4)   C                  14.76899390
     5)   C                  14.76874962
     6)   C                  14.76869056
     7)   H                   1.10109763
     8)   H                   1.10118200
     9)   H                   1.10156649
    10)   H                   1.10109737
    11)   H                   1.10117121
    12)   H                   1.10156662
 
 
 ========================
 No memory problems found
 ========================
 
 Maximum number of active allocate calls:        1279
 
 *******************************************************************************

                             A D F   E X I T
 NORMAL TERMINATION



 =================
 Timing Statistics
 =================
  
 Total Used :                     CPU=       42.91      System=        0.66     Elapsed=       44.01

 Calls  Section                     ( Mean, Percentage )
 ---------------------------------------------------------------------------------------------------
     3  ><      ................      0.00    0.01             0.00    0.01             0.00    0.01
     1  INIT    ................      0.59    1.36             0.02    3.48             0.61    1.39
     1  GEOMET  ................      0.04    0.09             0.01    1.78             0.05    0.11
     1  FRAGM   ................      0.02    0.04             0.02    3.01             0.04    0.09
     1  INPUTA  ................      0.00    0.01             0.00    0.00             0.00    0.01
     1  ATDEN   ................      0.01    0.01             0.00    0.00             0.01    0.01
     1  MAINSY  ................      0.03    0.08             0.00    0.03             0.03    0.08
     1  SYMFIT  ................      0.01    0.02             0.00    0.00             0.01    0.02
     1  CORORT  ................      0.00    0.00             0.00    0.00             0.00    0.00
     1  SYMORB  ................      0.00    0.00             0.00    0.40             0.00    0.01
     1  CLSMAT  ................      0.01    0.02             0.00    0.21             0.01    0.03
     1  ORTHON  ................      0.02    0.04             0.00    0.01             0.02    0.03
     1  GENPT   ................      0.12    0.29             0.00    0.61             0.13    0.29
     1  PTBAS   ................      0.09    0.21             0.00    0.60             0.09    0.22
    13  FOCKY   ................      0.32    9.60             0.00    3.67             0.32    9.44
    13  FOCKTR  ................      0.00    0.10             0.00    0.04             0.00    0.10
    13  SDIIS   ................      0.00    0.15             0.00    0.55             0.01    0.16
     1  COREPS  ................      0.24    0.57             0.00    0.00             0.24    0.56
     1  TOTEN   ................      1.05    2.45             0.02    3.63             1.08    2.44
     1  POPAN   ................      0.01    0.02             0.00    0.00             0.01    0.02
     1  DEBYE   ................      0.01    0.02             0.01    1.12             0.02    0.04
     1  INPUTE  ................      0.00    0.00             0.00    0.08             0.00    0.00
     1  SYMORE  ................      0.00    0.00             0.00    0.01             0.00    0.00
     1  METS    ................      0.00    0.00             0.00    0.00             0.00    0.00
     1  CETS    ................      0.01    0.03             0.00    0.00             0.01    0.03
     1  ELNRGY  ................      0.01    0.03             0.00    0.00             0.01    0.03
     1  POPUL   ................      0.01    0.03             0.00    0.00             0.01    0.03
     1  AORESPONSE .............     36.37   84.74             0.52   79.56            37.31   84.78
     1  EXIT PROCEDURE .........      0.03    0.06             0.01    1.21             0.04    0.08


 Currently Open Files (EXIT00)
 ====================

 Unit    Access Format  Status   Type       Ident (file)
 -------------------------------------------------------
   3      SEQ    FORM   TRANSP  NORMAL      LOGFILE
                                          ( logfile )

 ***************************************************************************************************
 (LOGFILE)
 <Sep29-2020> <15:16:06>  ADF 2019  RunTime: Sep29-2020 15:16:06  Nodes: 1  Procs: 1
 <Sep29-2020> <15:16:06>  Hydrogen (TZP)
 <Sep29-2020> <15:16:07>  RunType   : CREATE
 <Sep29-2020> <15:16:07>  Net Charge: 0 (Nuclei minus Electrons)
 <Sep29-2020> <15:16:07>  Symmetry  : ATOM
  Coordinates
    Atom         X           Y           Z   (Angstrom)
    1.H         0.000000    0.000000    0.000000
 <Sep29-2020> <15:16:07>  >>>> CORORT
 <Sep29-2020> <15:16:07>  >>>> CLSMAT
 <Sep29-2020> <15:16:07>  >>>> ORTHON
 <Sep29-2020> <15:16:07>  >>>> GENPT
 <Sep29-2020> <15:16:07>  Block Length=  64
 <Sep29-2020> <15:16:07>  >>>> PTBAS
 <Sep29-2020> <15:16:07>  >>>> CYCLE
 <Sep29-2020> <15:16:07>              |Error|         MaxErr       Wt(A-DIIS)
 <Sep29-2020> <15:16:07>      1      0.00000000      0.00000000
 <Sep29-2020> <15:16:07>      2      0.03052909      0.02968459
 <Sep29-2020> <15:16:07>      3      0.00718138      0.00670742    100.0
 <Sep29-2020> <15:16:07>      4      0.00117303      0.00114116      0.1
 <Sep29-2020> <15:16:07>      5      0.00002783      0.00002380      0.0
 <Sep29-2020> <15:16:07>      6      0.00000153      0.00000130      0.0
 <Sep29-2020> <15:16:07>      7      0.00000000      0.00000000      0.0
 <Sep29-2020> <15:16:07>  SCF converged
 <Sep29-2020> <15:16:07>      8      0.00000000      0.00000000      0.0
 <Sep29-2020> <15:16:07>  >>>> POPAN
 <Sep29-2020> <15:16:07>  >>>> DEBYE
 <Sep29-2020> <15:16:07>  NORMAL TERMINATION
 <Sep29-2020> <15:16:07>  END
 <Sep29-2020> <15:16:07>  ADF 2019  RunTime: Sep29-2020 15:16:07  Nodes: 1  Procs: 1
 <Sep29-2020> <15:16:07>  Carbon (TZP)
 <Sep29-2020> <15:16:07>  RunType   : CREATE
 <Sep29-2020> <15:16:07>  Net Charge: 0 (Nuclei minus Electrons)
 <Sep29-2020> <15:16:07>  Symmetry  : ATOM
  Coordinates
    Atom         X           Y           Z   (Angstrom)
    1.C         0.000000    0.000000    0.000000
 <Sep29-2020> <15:16:07>  >>>> CORORT
 <Sep29-2020> <15:16:07>  >>>> CLSMAT
 <Sep29-2020> <15:16:07>  >>>> ORTHON
 <Sep29-2020> <15:16:07>  >>>> GENPT
 <Sep29-2020> <15:16:07>  Block Length=  72
 <Sep29-2020> <15:16:07>  >>>> PTBAS
 <Sep29-2020> <15:16:07>  >>>> CYCLE
 <Sep29-2020> <15:16:07>              |Error|         MaxErr       Wt(A-DIIS)
 <Sep29-2020> <15:16:07>      1      0.00000000      0.00000000
 <Sep29-2020> <15:16:08>      2      4.48324754      3.31969244    100.0
 <Sep29-2020> <15:16:08>      3      1.61537707      1.30410194    100.0
 <Sep29-2020> <15:16:08>      4      0.72706284      0.59053131    100.0
 <Sep29-2020> <15:16:08>      5      0.40898688      0.33263800    100.0
 <Sep29-2020> <15:16:08>      6      0.13548919      0.10594416    100.0
 <Sep29-2020> <15:16:08>      7      0.11406432      0.09088019     90.8
 <Sep29-2020> <15:16:08>      8      0.01170325      0.00926551      8.3
 <Sep29-2020> <15:16:08>      9      0.00078015      0.00061791      0.0
 <Sep29-2020> <15:16:08>     10      0.00000178      0.00000107      0.0
 <Sep29-2020> <15:16:08>     11      0.00000024      0.00000019      0.0
 <Sep29-2020> <15:16:08>     12      0.00000000      0.00000000      0.0
 <Sep29-2020> <15:16:08>  SCF converged
 <Sep29-2020> <15:16:08>     13      0.00000000      0.00000000      0.0
 <Sep29-2020> <15:16:08>  >>>> POPAN
 <Sep29-2020> <15:16:08>  >>>> DEBYE
 <Sep29-2020> <15:16:08>  NORMAL TERMINATION
 <Sep29-2020> <15:16:08>  END
 <Sep29-2020> <15:16:08>  ADF 2019  RunTime: Sep29-2020 15:16:08  Nodes: 1  Procs: 6
 <Sep29-2020> <15:16:09>  None
 <Sep29-2020> <15:16:09>  RunType   : SINGLE POINT
 <Sep29-2020> <15:16:09>  Net Charge: 0 (Nuclei minus Electrons)
 <Sep29-2020> <15:16:09>  Symmetry  : NOSYM
 <Sep29-2020> <15:16:09>  >>>> FRAGM
  Coordinates
    Atom         X           Y           Z   (Angstrom)
    1.C         0.029689    4.000000   -1.398621
    2.C        -1.196841    4.000000   -0.725543
    3.C        -1.226557    4.000000    0.673943
    4.C        -0.029689    4.000000    1.398621
    5.C         1.196841    4.000000    0.725543
    6.C         1.226557    4.000000   -0.673938
    7.H        -2.128692    4.000000   -1.293797
    8.H        -2.181840    4.000000    1.202071
    9.H        -0.052926    4.000000    2.490121
   10.H         2.128713    4.000000    1.293766
   11.H         2.181951    4.000000   -1.202044
   12.H         0.052794    4.000000   -2.490121
 <Sep29-2020> <15:16:09>  >>>> CORORT
 <Sep29-2020> <15:16:09>  >>>> CLSMAT
 <Sep29-2020> <15:16:09>  >>>> ORTHON
 <Sep29-2020> <15:16:09>  >>>> GENPT
 <Sep29-2020> <15:16:09>  Block Length= 128
 <Sep29-2020> <15:16:09>  >>>> PTBAS
 <Sep29-2020> <15:16:09>  >>>> CYCLE
 <Sep29-2020> <15:16:10>              |Error|         MaxErr       Wt(A-DIIS)
 <Sep29-2020> <15:16:10>      1      5.99092873      0.98018916
 <Sep29-2020> <15:16:10>      2      0.89231920      0.18727550    100.0
 <Sep29-2020> <15:16:10>      3      0.52144939      0.10268255    100.0
 <Sep29-2020> <15:16:11>      4      0.74324508      0.17276969    100.0
 <Sep29-2020> <15:16:11>      5      0.07622301      0.01073532      9.8
 <Sep29-2020> <15:16:11>      6      0.01071091      0.00169461      0.7
 <Sep29-2020> <15:16:12>      7      0.00112934      0.00026789      0.0
 <Sep29-2020> <15:16:12>      8      0.00027594      0.00006794      0.0
 <Sep29-2020> <15:16:12>      9      0.00017085      0.00004353      0.0
 <Sep29-2020> <15:16:13>     10      0.00000672      0.00000142      0.0
 <Sep29-2020> <15:16:13>     11      0.00000820      0.00000185      0.0
 <Sep29-2020> <15:16:13>     12      0.00000011      0.00000002      0.0
 <Sep29-2020> <15:16:13>  SCF converged
 <Sep29-2020> <15:16:13>     13      0.00000009      0.00000002      0.0
 <Sep29-2020> <15:16:14>  >>>> TOTEN
 <Sep29-2020> <15:16:15>  >>>> POPAN
 <Sep29-2020> <15:16:15>  >>>> DEBYE
 <Sep29-2020> <15:16:15>  >>>> AMETS
 <Sep29-2020> <15:16:15>  >>>> POPUL
 <Sep29-2020> <15:16:15>     1 V(1)  0.1844448E+04
 <Sep29-2020> <15:16:16>     2 V(1)  0.1574627E+04
 <Sep29-2020> <15:16:16>     3 V(1)  0.1557314E+04
 <Sep29-2020> <15:16:16>     4 V(1)  0.1563895E+04
 <Sep29-2020> <15:16:17>     5 V(1)  0.1565847E+04
 <Sep29-2020> <15:16:17>     6 V(1)  0.1565757E+04
 <Sep29-2020> <15:16:18>     7 V(1)  0.1565674E+04
 <Sep29-2020> <15:16:18>     8 V(1)  0.1565669E+04
 <Sep29-2020> <15:16:19>     9 V(1)  0.1565664E+04
 <Sep29-2020> <15:16:19>    10 V(1)  0.1565663E+04
 <Sep29-2020> <15:16:19>   convergence reached
 <Sep29-2020> <15:16:20>     1 V(1)  0.2536227E+02
 <Sep29-2020> <15:16:20>     2 V(1)  0.2328899E+02
 <Sep29-2020> <15:16:20>     3 V(1)  0.2328364E+02
 <Sep29-2020> <15:16:21>     4 V(1)  0.2328289E+02
 <Sep29-2020> <15:16:21>     5 V(1)  0.2328278E+02
 <Sep29-2020> <15:16:22>     6 V(1)  0.2328280E+02
 <Sep29-2020> <15:16:22>   convergence reached
 <Sep29-2020> <15:16:22>     1 V(1)  0.1841523E+04
 <Sep29-2020> <15:16:23>     2 V(1)  0.1572002E+04
 <Sep29-2020> <15:16:23>     3 V(1)  0.1554748E+04
 <Sep29-2020> <15:16:23>     4 V(1)  0.1561257E+04
 <Sep29-2020> <15:16:24>     5 V(1)  0.1563002E+04
 <Sep29-2020> <15:16:24>     6 V(1)  0.1563177E+04
 <Sep29-2020> <15:16:25>     7 V(1)  0.1563057E+04
 <Sep29-2020> <15:16:25>     8 V(1)  0.1563042E+04
 <Sep29-2020> <15:16:26>     9 V(1)  0.1563039E+04
 <Sep29-2020> <15:16:26>    10 V(1)  0.1563036E+04
 <Sep29-2020> <15:16:27>    11 V(1)  0.1563036E+04
 <Sep29-2020> <15:16:27>   convergence reached
 <Sep29-2020> <15:16:27>     1 V(1)  0.1301026E+04
 <Sep29-2020> <15:16:27>     2 V(1)  0.1072394E+04
 <Sep29-2020> <15:16:28>     3 V(1)  0.1108013E+04
 <Sep29-2020> <15:16:28>     4 V(1)  0.1113585E+04
 <Sep29-2020> <15:16:29>     5 V(1)  0.1114474E+04
 <Sep29-2020> <15:16:29>     6 V(1)  0.1114570E+04
 <Sep29-2020> <15:16:30>     7 V(1)  0.1114574E+04
 <Sep29-2020> <15:16:30>     8 V(1)  0.1114572E+04
 <Sep29-2020> <15:16:31>     9 V(1)  0.1114570E+04
 <Sep29-2020> <15:16:31>    10 V(1)  0.1114569E+04
 <Sep29-2020> <15:16:31>   convergence reached
 <Sep29-2020> <15:16:32>     1 V(1)  0.1058108E+06
 <Sep29-2020> <15:16:32>     2 V(1)  0.8968206E+05
 <Sep29-2020> <15:16:33>     3 V(1)  0.8878614E+05
 <Sep29-2020> <15:16:33>     4 V(1)  0.8941413E+05
 <Sep29-2020> <15:16:34>     5 V(1)  0.8953276E+05
 <Sep29-2020> <15:16:34>     6 V(1)  0.8952649E+05
 <Sep29-2020> <15:16:35>     7 V(1)  0.8952168E+05
 <Sep29-2020> <15:16:35>     8 V(1)  0.8952130E+05
 <Sep29-2020> <15:16:36>     9 V(1)  0.8952091E+05
 <Sep29-2020> <15:16:36>    10 V(1)  0.8952089E+05
 <Sep29-2020> <15:16:36>   convergence reached
 <Sep29-2020> <15:16:37>     1 V(1)  0.6161569E+03
 <Sep29-2020> <15:16:37>     2 V(1)  0.4710696E+03
 <Sep29-2020> <15:16:38>     3 V(1)  0.4851090E+03
 <Sep29-2020> <15:16:38>     4 V(1)  0.4862928E+03
 <Sep29-2020> <15:16:38>     5 V(1)  0.4868181E+03
 <Sep29-2020> <15:16:39>     6 V(1)  0.4868258E+03
 <Sep29-2020> <15:16:39>     7 V(1)  0.4868283E+03
 <Sep29-2020> <15:16:40>     8 V(1)  0.4868273E+03
 <Sep29-2020> <15:16:40>     9 V(1)  0.4868261E+03
 <Sep29-2020> <15:16:41>    10 V(1)  0.4868259E+03
 <Sep29-2020> <15:16:41>   convergence reached
 <Sep29-2020> <15:16:41>     1 V(1)  0.2748727E+04
 <Sep29-2020> <15:16:42>     2 V(1)  0.2507391E+04
 <Sep29-2020> <15:16:42>     3 V(1)  0.2520126E+04
 <Sep29-2020> <15:16:43>     4 V(1)  0.2520551E+04
 <Sep29-2020> <15:16:43>     5 V(1)  0.2520550E+04
 <Sep29-2020> <15:16:43>   convergence reached
 <Sep29-2020> <15:16:44>     1 V(1)  0.1056432E+06
 <Sep29-2020> <15:16:44>     2 V(1)  0.8953322E+05
 <Sep29-2020> <15:16:45>     3 V(1)  0.8864030E+05
 <Sep29-2020> <15:16:45>     4 V(1)  0.8926354E+05
 <Sep29-2020> <15:16:46>     5 V(1)  0.8937112E+05
 <Sep29-2020> <15:16:46>     6 V(1)  0.8937995E+05
 <Sep29-2020> <15:16:47>     7 V(1)  0.8937218E+05
 <Sep29-2020> <15:16:47>     8 V(1)  0.8937133E+05
 <Sep29-2020> <15:16:48>     9 V(1)  0.8937111E+05
 <Sep29-2020> <15:16:48>    10 V(1)  0.8937090E+05
 <Sep29-2020> <15:16:49>    11 V(1)  0.8937092E+05
 <Sep29-2020> <15:16:49>   convergence reached
 <Sep29-2020> <15:16:49>     1 V(1)  0.1301991E+04
 <Sep29-2020> <15:16:50>     2 V(1)  0.1073239E+04
 <Sep29-2020> <15:16:50>     3 V(1)  0.1108829E+04
 <Sep29-2020> <15:16:51>     4 V(1)  0.1114395E+04
 <Sep29-2020> <15:16:51>     5 V(1)  0.1115293E+04
 <Sep29-2020> <15:16:52>     6 V(1)  0.1115392E+04
 <Sep29-2020> <15:16:52>     7 V(1)  0.1115392E+04
 <Sep29-2020> <15:16:52>   convergence reached
 <Sep29-2020> <15:16:52>  NORMAL TERMINATION
 <Sep29-2020> <15:16:52>  END
