

 Parallel Execution: Process Information
 ==============================================================================
 Rank   Node Name                              NodeID   MyNodeRank  NodeMaster
    0   magnesium.science.psu.edu                 0          0          0
    1   magnesium.science.psu.edu                 0          1         -1
    2   magnesium.science.psu.edu                 0          2         -1
    3   magnesium.science.psu.edu                 0          3         -1
    4   magnesium.science.psu.edu                 0          4         -1
    5   magnesium.science.psu.edu                 0          5         -1
 ==============================================================================


May use up to 7495MB of RAM as shared memory on node 0
 
TITLE None

ATOMS
1  C     0.02926591    4.00000000   -1.39855765
2  C    -1.19661884    4.00000000   -0.72485002
3  C    -1.22636649    4.00000000    0.67323414
4  C    -0.03013409    4.00000000    1.39864235
5  C     1.19738116    4.00000000    0.72575527
6  C     1.22703351    4.00000000   -0.67416586
7  H    -2.13024293    4.00000000   -1.29010772
8  H    -2.18341763    4.00000000    1.19809009
9  H    -0.05585338    4.00000000    2.49009471
10 H     2.12995707    4.00000000    1.29289228
11 H     2.18288766    4.00000000   -1.20151520
12 H     0.05004662    4.00000000   -2.49011059
END

XC
 gga BP86
end

symmetry nosym

aoresponse
 alda
 frequency 1 3.6 eV
 lifetime 0.0037
 El_Dipole_El_Dipole
 El_Dipole_El_Quadrupole
 El_Quadrupole_El_Quadrupole
 Traceless
end

Fragments
H t21.H
C t21.C
End

 *******************************************************************************
 *                                                                             *
 *  -------------------------------------                                      *
 *   Amsterdam Density Functional  (ADF)         2019                          *
 *  -------------------------------------                                      *
 *                                               r75281 2019-06-03             *
 *                                                                             *
 *                                                                             *
 *                              =================                              *
 *                              |               |                              *
 *                              |     A D F     |                              *
 *                              |               |                              *
 *                              =================                              *
 *                                                                             *
 *                                                                             *
 *   Online information and documentation:  https://www.scm.com/support/       *
 *   E-mail:  support@scm.com   info@scm.com                                   *
 *                                                                             *
 *   Scientific publications using ADF results must be properly referenced     *
 *   See the User Manuals (or the web site) for recommended citations          *
 *   The terms and conditions of the End User License Agreement apply to       *
 *   the use of ADF, https://www.scm.com/license-terms/                        *
 *                                                                             *
 **********************  x86_64_linux_intel / intelmpi  ************************
 
 Licensed to: Prof. Lasse Jensen / Penn State University / University Park / PA  / USA
 SCM User ID: u8493
  
 ADF 2019  RunTime: Sep29-2020 15:13:07  Nodes: 1  Procs: 6

 Temporary files are created in /scratch/kid_0.430563652


Communication costs MPI_COMM_WORLD:      0.563 usec per message,   0.0071 usec per 8-byte item
Communication costs for intra-node:      0.566 usec per message,   0.0071 usec per 8-byte item

 None



 ===========================
 A T T A C H E D   F I L E S
 ===========================
  



 ===============================
 M O D E L   P A R A M E T E R S
 ===============================
  
 DENSITY FUNCTIONAL POTENTIAL (scf)
    LDA:                               VWN                                      
    Gradient Corrections:              Becke88 Perdew86                        == Not Default ==

 SPIN  (restricted / unrestr.)
    Molecule:                          Restricted                               
    Fragments:                         Restricted                               

 OTHER ASPECTS
    Relativistic Corrections:          ---                                      

    Nuclear Charge Density Model:      Point Charge Nuclei                      
    Core Treatment:                    Frozen Orbital(s)                        

    Hyperfine or Zeeman Interaction:   ---                                      


 Fragment File(s)
 ----------------
 C:
         file : t21.C
         jobid: ADF 2019  RunTime: Sep29-2020 15:13:06  Nodes: 1  Procs: 1
         title: Carbon (TZP)
 H:
         file : t21.H
         jobid: ADF 2019  RunTime: Sep29-2020 15:13:06  Nodes: 1  Procs: 1
         title: Hydrogen (TZP)



                                        ************************************
                                        *  R U N   T Y P E : SINGLE POINT  *
                                        ************************************
  



 ===============
 G E O M E T R Y  ***  Planar Molecule  ***
 ===============
  

 ATOMS
 =====                            X Y Z                    CHARGE
                                (Angstrom)             Nucl     +Core       At.Mass
                       --------------------------    ----------------       -------
    1  C               0.0293    4.0000   -1.3986      6.00      6.00       12.0000
    2  C              -1.1966    4.0000   -0.7249      6.00      6.00       12.0000
    3  C              -1.2264    4.0000    0.6732      6.00      6.00       12.0000
    4  C              -0.0301    4.0000    1.3986      6.00      6.00       12.0000
    5  C               1.1974    4.0000    0.7258      6.00      6.00       12.0000
    6  C               1.2270    4.0000   -0.6742      6.00      6.00       12.0000
    7  H              -2.1302    4.0000   -1.2901      1.00      1.00        1.0078
    8  H              -2.1834    4.0000    1.1981      1.00      1.00        1.0078
    9  H              -0.0559    4.0000    2.4901      1.00      1.00        1.0078
   10  H               2.1300    4.0000    1.2929      1.00      1.00        1.0078
   11  H               2.1829    4.0000   -1.2015      1.00      1.00        1.0078
   12  H               0.0500    4.0000   -2.4901      1.00      1.00        1.0078


 FRAGMENTS
 =========                                     Atoms in this Fragment     Cart. coord.s (Angstrom)
                                               -------------------------------------------------------
    1  C                                                 1  C            0.0293    4.0000   -1.3986
    2  C                                                 2  C           -1.1966    4.0000   -0.7249
    3  C                                                 3  C           -1.2264    4.0000    0.6732
    4  C                                                 4  C           -0.0301    4.0000    1.3986
    5  C                                                 5  C            1.1974    4.0000    0.7258
    6  C                                                 6  C            1.2270    4.0000   -0.6742
    7  H                                                 7  H           -2.1302    4.0000   -1.2901
    8  H                                                 8  H           -2.1834    4.0000    1.1981
    9  H                                                 9  H           -0.0559    4.0000    2.4901
   10  H                                                10  H            2.1300    4.0000    1.2929
   11  H                                                11  H            2.1829    4.0000   -1.2015
   12  H                                                12  H            0.0500    4.0000   -2.4901


 Interatomic Distance Matrix (Angstrom)
 --------------------------------------

   1)     0.000
   2)     1.399   0.000
   3)     2.423   1.398   0.000
   4)     2.798   2.423   1.399   0.000
   5)     2.424   2.799   2.424   1.400   0.000
   6)     1.400   2.424   2.799   2.424   1.400   0.000
   7)     2.162   1.091   2.161   3.412   3.891   3.413   0.000
   8)     3.412   2.161   1.092   2.163   3.414   3.891   2.489   0.000
   9)     3.890   3.411   2.161   1.092   2.164   3.414   4.312   2.489   0.000
  10)     3.414   3.891   3.413   2.163   1.091   2.164   4.982   4.314   2.492   0.000
  11)     2.163   3.413   3.891   3.414   2.165   1.092   4.314   4.982   4.317   2.495
          0.000
  12)     1.092   2.161   3.411   3.890   3.414   2.164   2.489   4.312   4.981   4.317
          2.492   0.000

 Min. Distance =    1.0914
 Max. Distance =    4.9822



 =====================================
 S Y M M E T R Y ,   E L E C T R O N S
 =====================================
  
 Symmetry: NOSYM

 Irreducible Representations, including subspecies
 -------------------------------------------------
 A


 Configuration of Valence Electrons
 ==================================
 ( determined in the SCF procedure )

 Total:   42

 Net Charge: 0 (Nuclei minus Electrons)

 Aufbau principle for MO occupations will be applied through SCF cycle no.     150
 Thereafter, the program will assign electrons to MOs that are spatially
 similar to the occupied MOs in a "reference" cycle ("KeepOrbitals").
 The reference cycle is always the PREVIOUS cycle: it will evolve with
 the SCF procedure.
1
 ***************************************************************************************************



                                      ****************************************
                                      *  B U I L D : (Fragments, Functions)  *
                                      ****************************************
  



 =======
 S F O s  ***  (Symmetrized Fragment Orbitals)  ***
 =======
  
 SFOs are linear combinations of (valence) Fragment Orbitals (FOs), such that the SFOs transform as the
 irreducible representations of the (molecular) symmetry group. Each SFO is therefore characterized by
 an irrep of the molecule and by a few (or only one) generating FOs.
 The SFOs constitute a symmetry-adapted basis for the Fock matrix. The MO eigenvector coefficients in
 this basis provide a direct interpretation of the MOs in terms of Frontier Orbital Theory.

 The SFOs are combined with auxiliary Core Functions (CFs) to ensure orthogonalization on the (frozen)
 Core Orbitals (COs). The Core-orthogonalized SFOs (CSFOs) constitute the true Fock basis.

 The FOs, and hence also the (C)SFOs are combinations of the elementary basis functions (BAS). The basis
 functions that participate in the description of the SFOs depend on the irrep. The indices of the
 involved functions are printed below for each irrep.
 (The complete list of primitive basis functions is printed in another section)

 Total nr. of (C)SFOs (summation over all irreps) :   150

 NOTE: a (C)SFO that is defined as a combination of more than one FO is usually NOT normalized.



                                       === A ===
 Nr. of SFOs :  150
 Cartesian basis functions that participate in this irrep (total number =   156) :
      1     2     3     4     5     6     9    12     7    10
     13     8    11    14    15    16    17    18    19    20
     21    22    23    24    25    26    29    32    27    30
     33    28    31    34    35    36    37    38    39    40
     41    42    43    44    45    46    49    52    47    50
     53    48    51    54    55    56    57    58    59    60
     61    62    63    64    65    66    69    72    67    70
     73    68    71    74    75    76    77    78    79    80
     81    82    83    84    85    86    89    92    87    90
     93    88    91    94    95    96    97    98    99   100
    101   102   103   104   105   106   109   112   107   110
    113   108   111   114   115   116   117   118   119   120
    121   122   123   124   125   126   127   128   129   130
    131   132   133   134   135   136   137   138   139   140
    141   142   143   144   145   146   147   148   149   150
    151   152   153   154   155   156

    SFO  (index         Fragment          Generating    Expansion in Fragment Orbitals
  indx  incl.CFs)   Occup   Orb.Energy   FragmentType  Coeff.   Orbital     on Fragment
 --------------------------------------------------------------------------------------
     1       1      2.000     -10.058 au  C             1.00      1 S               1
                        (    -273.681 eV)
     2       2      2.000      -0.510 au  C             1.00      2 S               1
                        (     -13.876 eV)
     3       3       --         0.371 au  C             1.00      3 S               1
                        (      10.091 eV)
     4       4       --         5.428 au  C             1.00      4 S               1
                        (     147.707 eV)
     5       5       --        50.181 au  C             1.00      5 S               1
                        (    1365.486 eV)
     6       6      0.667      -0.199 au  C             1.00      1 P:x             1
                        (      -5.403 eV)
     7       7       --         0.173 au  C             1.00      2 P:x             1
                        (       4.709 eV)
     8       8       --         2.026 au  C             1.00      3 P:x             1
                        (      55.143 eV)
     9       9      0.667      -0.199 au  C             1.00      1 P:y             1
                        (      -5.403 eV)
    10      10       --         0.173 au  C             1.00      2 P:y             1
                        (       4.709 eV)
    11      11       --         2.026 au  C             1.00      3 P:y             1
                        (      55.143 eV)
    12      12      0.667      -0.199 au  C             1.00      1 P:z             1
                        (      -5.403 eV)
    13      13       --         0.173 au  C             1.00      2 P:z             1
                        (       4.709 eV)
    14      14       --         2.026 au  C             1.00      3 P:z             1
                        (      55.143 eV)
    15      15       --         1.232 au  C             1.00      1 D:z2            1
                        (      33.528 eV)
    16      16       --         1.232 au  C             1.00      1 D:x2-y2         1
                        (      33.528 eV)
    17      17       --         1.232 au  C             1.00      1 D:xy            1
                        (      33.528 eV)
    18      18       --         1.232 au  C             1.00      1 D:xz            1
                        (      33.528 eV)
    19      19       --         1.232 au  C             1.00      1 D:yz            1
                        (      33.528 eV)
    20      20      2.000     -10.058 au  C             1.00      1 S               2
                        (    -273.681 eV)
    21      21      2.000      -0.510 au  C             1.00      2 S               2
                        (     -13.876 eV)
    22      22       --         0.371 au  C             1.00      3 S               2
                        (      10.091 eV)
    23      23       --         5.428 au  C             1.00      4 S               2
                        (     147.707 eV)
    24      24       --        50.181 au  C             1.00      5 S               2
                        (    1365.486 eV)
    25      25      0.667      -0.199 au  C             1.00      1 P:x             2
                        (      -5.403 eV)
    26      26       --         0.173 au  C             1.00      2 P:x             2
                        (       4.709 eV)
    27      27       --         2.026 au  C             1.00      3 P:x             2
                        (      55.143 eV)
    28      28      0.667      -0.199 au  C             1.00      1 P:y             2
                        (      -5.403 eV)
    29      29       --         0.173 au  C             1.00      2 P:y             2
                        (       4.709 eV)
    30      30       --         2.026 au  C             1.00      3 P:y             2
                        (      55.143 eV)
    31      31      0.667      -0.199 au  C             1.00      1 P:z             2
                        (      -5.403 eV)
    32      32       --         0.173 au  C             1.00      2 P:z             2
                        (       4.709 eV)
    33      33       --         2.026 au  C             1.00      3 P:z             2
                        (      55.143 eV)
    34      34       --         1.232 au  C             1.00      1 D:z2            2
                        (      33.528 eV)
    35      35       --         1.232 au  C             1.00      1 D:x2-y2         2
                        (      33.528 eV)
    36      36       --         1.232 au  C             1.00      1 D:xy            2
                        (      33.528 eV)
    37      37       --         1.232 au  C             1.00      1 D:xz            2
                        (      33.528 eV)
    38      38       --         1.232 au  C             1.00      1 D:yz            2
                        (      33.528 eV)
    39      39      2.000     -10.058 au  C             1.00      1 S               3
                        (    -273.681 eV)
    40      40      2.000      -0.510 au  C             1.00      2 S               3
                        (     -13.876 eV)
    41      41       --         0.371 au  C             1.00      3 S               3
                        (      10.091 eV)
    42      42       --         5.428 au  C             1.00      4 S               3
                        (     147.707 eV)
    43      43       --        50.181 au  C             1.00      5 S               3
                        (    1365.486 eV)
    44      44      0.667      -0.199 au  C             1.00      1 P:x             3
                        (      -5.403 eV)
    45      45       --         0.173 au  C             1.00      2 P:x             3
                        (       4.709 eV)
    46      46       --         2.026 au  C             1.00      3 P:x             3
                        (      55.143 eV)
    47      47      0.667      -0.199 au  C             1.00      1 P:y             3
                        (      -5.403 eV)
    48      48       --         0.173 au  C             1.00      2 P:y             3
                        (       4.709 eV)
    49      49       --         2.026 au  C             1.00      3 P:y             3
                        (      55.143 eV)
    50      50      0.667      -0.199 au  C             1.00      1 P:z             3
                        (      -5.403 eV)
    51      51       --         0.173 au  C             1.00      2 P:z             3
                        (       4.709 eV)
    52      52       --         2.026 au  C             1.00      3 P:z             3
                        (      55.143 eV)
    53      53       --         1.232 au  C             1.00      1 D:z2            3
                        (      33.528 eV)
    54      54       --         1.232 au  C             1.00      1 D:x2-y2         3
                        (      33.528 eV)
    55      55       --         1.232 au  C             1.00      1 D:xy            3
                        (      33.528 eV)
    56      56       --         1.232 au  C             1.00      1 D:xz            3
                        (      33.528 eV)
    57      57       --         1.232 au  C             1.00      1 D:yz            3
                        (      33.528 eV)
    58      58      2.000     -10.058 au  C             1.00      1 S               4
                        (    -273.681 eV)
    59      59      2.000      -0.510 au  C             1.00      2 S               4
                        (     -13.876 eV)
    60      60       --         0.371 au  C             1.00      3 S               4
                        (      10.091 eV)
    61      61       --         5.428 au  C             1.00      4 S               4
                        (     147.707 eV)
    62      62       --        50.181 au  C             1.00      5 S               4
                        (    1365.486 eV)
    63      63      0.667      -0.199 au  C             1.00      1 P:x             4
                        (      -5.403 eV)
    64      64       --         0.173 au  C             1.00      2 P:x             4
                        (       4.709 eV)
    65      65       --         2.026 au  C             1.00      3 P:x             4
                        (      55.143 eV)
    66      66      0.667      -0.199 au  C             1.00      1 P:y             4
                        (      -5.403 eV)
    67      67       --         0.173 au  C             1.00      2 P:y             4
                        (       4.709 eV)
    68      68       --         2.026 au  C             1.00      3 P:y             4
                        (      55.143 eV)
    69      69      0.667      -0.199 au  C             1.00      1 P:z             4
                        (      -5.403 eV)
    70      70       --         0.173 au  C             1.00      2 P:z             4
                        (       4.709 eV)
    71      71       --         2.026 au  C             1.00      3 P:z             4
                        (      55.143 eV)
    72      72       --         1.232 au  C             1.00      1 D:z2            4
                        (      33.528 eV)
    73      73       --         1.232 au  C             1.00      1 D:x2-y2         4
                        (      33.528 eV)
    74      74       --         1.232 au  C             1.00      1 D:xy            4
                        (      33.528 eV)
    75      75       --         1.232 au  C             1.00      1 D:xz            4
                        (      33.528 eV)
    76      76       --         1.232 au  C             1.00      1 D:yz            4
                        (      33.528 eV)
    77      77      2.000     -10.058 au  C             1.00      1 S               5
                        (    -273.681 eV)
    78      78      2.000      -0.510 au  C             1.00      2 S               5
                        (     -13.876 eV)
    79      79       --         0.371 au  C             1.00      3 S               5
                        (      10.091 eV)
    80      80       --         5.428 au  C             1.00      4 S               5
                        (     147.707 eV)
    81      81       --        50.181 au  C             1.00      5 S               5
                        (    1365.486 eV)
    82      82      0.667      -0.199 au  C             1.00      1 P:x             5
                        (      -5.403 eV)
    83      83       --         0.173 au  C             1.00      2 P:x             5
                        (       4.709 eV)
    84      84       --         2.026 au  C             1.00      3 P:x             5
                        (      55.143 eV)
    85      85      0.667      -0.199 au  C             1.00      1 P:y             5
                        (      -5.403 eV)
    86      86       --         0.173 au  C             1.00      2 P:y             5
                        (       4.709 eV)
    87      87       --         2.026 au  C             1.00      3 P:y             5
                        (      55.143 eV)
    88      88      0.667      -0.199 au  C             1.00      1 P:z             5
                        (      -5.403 eV)
    89      89       --         0.173 au  C             1.00      2 P:z             5
                        (       4.709 eV)
    90      90       --         2.026 au  C             1.00      3 P:z             5
                        (      55.143 eV)
    91      91       --         1.232 au  C             1.00      1 D:z2            5
                        (      33.528 eV)
    92      92       --         1.232 au  C             1.00      1 D:x2-y2         5
                        (      33.528 eV)
    93      93       --         1.232 au  C             1.00      1 D:xy            5
                        (      33.528 eV)
    94      94       --         1.232 au  C             1.00      1 D:xz            5
                        (      33.528 eV)
    95      95       --         1.232 au  C             1.00      1 D:yz            5
                        (      33.528 eV)
    96      96      2.000     -10.058 au  C             1.00      1 S               6
                        (    -273.681 eV)
    97      97      2.000      -0.510 au  C             1.00      2 S               6
                        (     -13.876 eV)
    98      98       --         0.371 au  C             1.00      3 S               6
                        (      10.091 eV)
    99      99       --         5.428 au  C             1.00      4 S               6
                        (     147.707 eV)
   100     100       --        50.181 au  C             1.00      5 S               6
                        (    1365.486 eV)
   101     101      0.667      -0.199 au  C             1.00      1 P:x             6
                        (      -5.403 eV)
   102     102       --         0.173 au  C             1.00      2 P:x             6
                        (       4.709 eV)
   103     103       --         2.026 au  C             1.00      3 P:x             6
                        (      55.143 eV)
   104     104      0.667      -0.199 au  C             1.00      1 P:y             6
                        (      -5.403 eV)
   105     105       --         0.173 au  C             1.00      2 P:y             6
                        (       4.709 eV)
   106     106       --         2.026 au  C             1.00      3 P:y             6
                        (      55.143 eV)
   107     107      0.667      -0.199 au  C             1.00      1 P:z             6
                        (      -5.403 eV)
   108     108       --         0.173 au  C             1.00      2 P:z             6
                        (       4.709 eV)
   109     109       --         2.026 au  C             1.00      3 P:z             6
                        (      55.143 eV)
   110     110       --         1.232 au  C             1.00      1 D:z2            6
                        (      33.528 eV)
   111     111       --         1.232 au  C             1.00      1 D:x2-y2         6
                        (      33.528 eV)
   112     112       --         1.232 au  C             1.00      1 D:xy            6
                        (      33.528 eV)
   113     113       --         1.232 au  C             1.00      1 D:xz            6
                        (      33.528 eV)
   114     114       --         1.232 au  C             1.00      1 D:yz            6
                        (      33.528 eV)
   115     115      1.000      -0.244 au  H             1.00      1 S               7
                        (      -6.626 eV)
   116     116       --         0.093 au  H             1.00      2 S               7
                        (       2.536 eV)
   117     117       --         1.515 au  H             1.00      3 S               7
                        (      41.236 eV)
   118     118       --         0.400 au  H             1.00      1 P:x             7
                        (      10.872 eV)
   119     119       --         0.400 au  H             1.00      1 P:y             7
                        (      10.872 eV)
   120     120       --         0.400 au  H             1.00      1 P:z             7
                        (      10.872 eV)
   121     121      1.000      -0.244 au  H             1.00      1 S               8
                        (      -6.626 eV)
   122     122       --         0.093 au  H             1.00      2 S               8
                        (       2.536 eV)
   123     123       --         1.515 au  H             1.00      3 S               8
                        (      41.236 eV)
   124     124       --         0.400 au  H             1.00      1 P:x             8
                        (      10.872 eV)
   125     125       --         0.400 au  H             1.00      1 P:y             8
                        (      10.872 eV)
   126     126       --         0.400 au  H             1.00      1 P:z             8
                        (      10.872 eV)
   127     127      1.000      -0.244 au  H             1.00      1 S               9
                        (      -6.626 eV)
   128     128       --         0.093 au  H             1.00      2 S               9
                        (       2.536 eV)
   129     129       --         1.515 au  H             1.00      3 S               9
                        (      41.236 eV)
   130     130       --         0.400 au  H             1.00      1 P:x             9
                        (      10.872 eV)
   131     131       --         0.400 au  H             1.00      1 P:y             9
                        (      10.872 eV)
   132     132       --         0.400 au  H             1.00      1 P:z             9
                        (      10.872 eV)
   133     133      1.000      -0.244 au  H             1.00      1 S              10
                        (      -6.626 eV)
   134     134       --         0.093 au  H             1.00      2 S              10
                        (       2.536 eV)
   135     135       --         1.515 au  H             1.00      3 S              10
                        (      41.236 eV)
   136     136       --         0.400 au  H             1.00      1 P:x            10
                        (      10.872 eV)
   137     137       --         0.400 au  H             1.00      1 P:y            10
                        (      10.872 eV)
   138     138       --         0.400 au  H             1.00      1 P:z            10
                        (      10.872 eV)
   139     139      1.000      -0.244 au  H             1.00      1 S              11
                        (      -6.626 eV)
   140     140       --         0.093 au  H             1.00      2 S              11
                        (       2.536 eV)
   141     141       --         1.515 au  H             1.00      3 S              11
                        (      41.236 eV)
   142     142       --         0.400 au  H             1.00      1 P:x            11
                        (      10.872 eV)
   143     143       --         0.400 au  H             1.00      1 P:y            11
                        (      10.872 eV)
   144     144       --         0.400 au  H             1.00      1 P:z            11
                        (      10.872 eV)
   145     145      1.000      -0.244 au  H             1.00      1 S              12
                        (      -6.626 eV)
   146     146       --         0.093 au  H             1.00      2 S              12
                        (       2.536 eV)
   147     147       --         1.515 au  H             1.00      3 S              12
                        (      41.236 eV)
   148     148       --         0.400 au  H             1.00      1 P:x            12
                        (      10.872 eV)
   149     149       --         0.400 au  H             1.00      1 P:y            12
                        (      10.872 eV)
   150     150       --         0.400 au  H             1.00      1 P:z            12
                        (      10.872 eV)



 ================================
 (Slater-type)  F U N C T I O N S  ***  (Basis and Fit)  ***
 ================================
  

 Atom Type    1  (C)
 ==============

 Valence Basis Sets:   9
 -----------------------
   1 S    7.680000
   1 S    5.000000
   2 S    1.280000
   2 S    2.100000
   2 S    4.600000
   2 P    0.820000
   2 P    1.480000
   2 P    2.940000
   3 D    2.200000

 Atom Type    2  (H)
 ==============

 Valence Basis Sets:   4
 -----------------------
   1 S    0.690000
   1 S    0.920000
   1 S    1.580000
   2 P    1.250000


 BAS: List of all Elementary Cartesian Basis Functions
 =====================================================

 The numbering in the list below (to the right of the function characteristics) is referred
 to in print-outs of MO eigenvectors and Mulliken populations in the BAS representation
 (as contrasted to the SFO representation).

 Notes:
 1. The functions are characterized by a polynomial prefactor (powers of x,y,z and r) and
    an exponential decay factor alpha.
 2. Since the basis sets are specific for an atom TYPE, the individual functions occur on
    all atoms of that type.
 3. The word 'Core' in the left margin signals that it is a Core Function (CF) : not a
    degree of freedom in the valence set, but only used to ensure orthogonalization of
    the other valence basis functions on the frozen Core Orbitals.


 (power of) X  Y  Z  R     Alpha  on Atom
            ==========     =====     ==========

 C                                    1    2    3    4    5    6
                                  ---------------------------------------------------------------------------
            0  0  0  0     7.680      1   21   41   61   81  101
            0  0  0  0     5.000      2   22   42   62   82  102
            0  0  0  1     1.280      3   23   43   63   83  103
            0  0  0  1     2.100      4   24   44   64   84  104
            0  0  0  1     4.600      5   25   45   65   85  105
            1  0  0  0     0.820      6   26   46   66   86  106
            0  1  0  0     0.820      7   27   47   67   87  107
            0  0  1  0     0.820      8   28   48   68   88  108
            1  0  0  0     1.480      9   29   49   69   89  109
            0  1  0  0     1.480     10   30   50   70   90  110
            0  0  1  0     1.480     11   31   51   71   91  111
            1  0  0  0     2.940     12   32   52   72   92  112
            0  1  0  0     2.940     13   33   53   73   93  113
            0  0  1  0     2.940     14   34   54   74   94  114
            2  0  0  0     2.200     15   35   55   75   95  115
            1  1  0  0     2.200     16   36   56   76   96  116
            1  0  1  0     2.200     17   37   57   77   97  117
            0  2  0  0     2.200     18   38   58   78   98  118
            0  1  1  0     2.200     19   39   59   79   99  119
            0  0  2  0     2.200     20   40   60   80  100  120

 H                                    7    8    9   10   11   12
                                  ---------------------------------------------------------------------------
            0  0  0  0     0.690    121  127  133  139  145  151
            0  0  0  0     0.920    122  128  134  140  146  152
            0  0  0  0     1.580    123  129  135  141  147  153
            1  0  0  0     1.250    124  130  136  142  148  154
            0  1  0  0     1.250    125  131  137  143  149  155
            0  0  1  0     1.250    126  132  138  144  150  156

 Total number of charge fitting functions (nprimf)       804
 Total number of Cartesian basis functions (naos)        156
 Total number of Cartesian core functions  (ncos)          0

1
 ***************************************************************************************************



                                              ***********************
                                              *  T E C H N I C A L  *
                                              ***********************
  



 =============================================================
 P A R A L L E L I Z A T I O N  and  V E C T O R I Z A T I O N
 =============================================================
  
 Nr of parallel processes:                                6
 Maximum vector length in NumInt loops:                 128



 =====================
 S C F   U P D A T E S
 =====================
  
 Max. nr. of cycles:                               300
 Convergence criterion:                              0.0000010000
   secondary criterion:                              0.0010000000

 Mix parameter (when DIIS does not apply):           0.2000000000
 Mixed ADIIS+SDIIS will be used                  
    Max number of expansion vectors:                10
    Pure ADIIS when Max([F,P]) is above              0.1000000000
    Pure SDIIS when Max([F,P]) is below              0.0010000000
 Automatic ElectronSmearing (in case of problematic SCF convergence) disabled



 =================
 P R E C I S I O N  ***  (General: NumInt, NeglectFunctionTails, ...)  ***
 =================
  

 NumInt:           Target precision:                 4.0000000000
 -------           Initial precision:                4.0000000000
                   Min. precision (optimization):    4.0000000000

 Neglect Functions:          Basis functions:        0.1000000000E-13
 ------------------          Fit functions:          0.1000000000E-13



 ===========================
 L I N E A R   S C A L I N G
 ===========================
  

 Cut-off radii density fit:                        0.1000000000E-07
 Overlap cut-off criterion AO matrix elements:     0.1000000000E-05
 Cut-offs for Coulomb potential and fitted density:0.1000000000E-07
 Cut-off criterion for Coulomb multipole terms:    0.1000000000E-07
 Progressive Convergence parameter:                 0.000000000    
1
 ***************************************************************************************************



                                            ***************************
                                            *  C O M P U T A T I O N  *
                                            ***************************
  

 Number of elements of the density matrix on this node (used, total):      1962     12246



 ===========================================
 Numerical Integration : Fuzzy Cells (Becke)
 ===========================================
  
 Becke grid quality: NORMAL         
  
 Lebedev angular grid order:             min:  11 max:  23
 Nr. of radial points:                   min:  46 max:  52

 Total nr. of points:      75660
 Nr. of blocks:              592
 Block length:               128
 Nr. of dummy points:        116


 Test of Precision of the Numerical Integration Grid
 ===================================================

 Integral of the Total Core Density:                   0.00000000000000



 ========================
 Density Fitting (zlmFit)
 ========================
  
 ZlmFit Fit Quality: NORMAL         
  
 Max L-expansion:                        min:   5 max:   6
 Nr. of radial interpolation points:     min:  36 max:  48



 =====
 S C F  ***  ScaSCF  ***
 =====
  
 Initial density matrix is calculated as sum of fragments

 CYCLE    1
 SCF Error: norm([F,P])=      5.990925293303, max([F,P])=      0.980856935517
 orbitals (Q,E):
 ---------------
 A :12...31          ( 2.00    -0.6583)  ( 2.00    -0.6250)  ( 2.00    -0.5884)  ( 2.00    -0.5691)
                     ( 2.00    -0.5689)  ( 2.00    -0.5031)  ( 2.00    -0.5016)  ( 2.00    -0.5015)
                     ( 2.00    -0.4055)  ( 2.00    -0.4055)  ( 0.00    -0.2151)  ( 0.00    -0.2151)
                     ( 0.00    -0.0768)  ( 0.00    -0.0731)  ( 0.00    -0.0375)  ( 0.00    -0.0375)
                     ( 0.00    -0.0111)  ( 0.00    -0.0111)  ( 0.00     0.0270)  ( 0.00     0.0510)

 CYCLE    2
   MIX coefficients:  0.8000  0.2000
 SCF Error: norm([F,P])=      0.892327493545, max([F,P])=      0.187152597298
 orbitals (Q,E):
 ---------------
 A :12...22          ( 2.00    -0.5946)  ( 2.00    -0.5421)  ( 2.00    -0.5328)  ( 2.00    -0.5022)
                     ( 2.00    -0.5020)  ( 2.00    -0.4366)  ( 2.00    -0.4344)  ( 2.00    -0.4343)
                     ( 2.00    -0.3389)  ( 2.00    -0.3388)  ( 0.00    -0.1501)

 CYCLE    3
  SDIIS (wt  0.000): -1.2669  2.2669
 A-DIIS (wt  1.000):  0.0000  1.0000
  DIIS coefficients:  0.0000  1.0000
 SCF Error: norm([F,P])=      0.521452022147, max([F,P])=      0.102623773880
 orbitals (Q,E):
 ---------------
 A :12...22          ( 2.00    -0.3985)  ( 2.00    -0.3564)  ( 2.00    -0.2966)  ( 2.00    -0.2964)
                     ( 2.00    -0.2951)  ( 2.00    -0.2475)  ( 2.00    -0.2227)  ( 2.00    -0.2227)
                     ( 2.00    -0.1499)  ( 2.00    -0.1498)  ( 0.00     0.0285)

 CYCLE    4
  SDIIS (wt  0.000):  0.1837  0.3521  0.4642
 A-DIIS (wt  1.000): -0.0000  0.6402  0.3598
  DIIS coefficients: -0.0000  0.6402  0.3598
 SCF Error: norm([F,P])=      0.743251861411, max([F,P])=      0.172687736194
 orbitals (Q,E):
 ---------------
 A :12...22          ( 2.00    -0.4673)  ( 2.00    -0.4037)  ( 2.00    -0.3933)  ( 2.00    -0.3709)
                     ( 2.00    -0.3706)  ( 2.00    -0.3293)  ( 2.00    -0.2970)  ( 2.00    -0.2969)
                     ( 2.00    -0.2286)  ( 2.00    -0.2286)  ( 0.00    -0.0404)

 CYCLE    5
  SDIIS (wt  0.902): -0.0173  0.2160  0.0732  0.7280
 A-DIIS (wt  0.098):  0.0000  0.0000  0.0000  1.0000
  DIIS coefficients: -0.0156  0.1948  0.0660  0.7548
 SCF Error: norm([F,P])=      0.076226235271, max([F,P])=      0.010736116552
 orbitals (Q,E):
 ---------------
 A :12...22          ( 2.00    -0.4793)  ( 2.00    -0.4187)  ( 2.00    -0.4084)  ( 2.00    -0.3828)
                     ( 2.00    -0.3825)  ( 2.00    -0.3380)  ( 2.00    -0.3110)  ( 2.00    -0.3109)
                     ( 2.00    -0.2384)  ( 2.00    -0.2383)  ( 0.00    -0.0510)

 CYCLE    6
  SDIIS (wt  0.992): -0.0028  0.0316  0.0083  0.1931  0.7698
 A-DIIS (wt  0.008):  0.0000  0.0000  0.0000  0.0000  1.0000
  DIIS coefficients: -0.0028  0.0313  0.0082  0.1916  0.7716
 SCF Error: norm([F,P])=      0.010754040394, max([F,P])=      0.001799713043
 orbitals (Q,E):
 ---------------
 A :12...22          ( 2.00    -0.4790)  ( 2.00    -0.4180)  ( 2.00    -0.4073)  ( 2.00    -0.3826)
                     ( 2.00    -0.3824)  ( 2.00    -0.3374)  ( 2.00    -0.3104)  ( 2.00    -0.3103)
                     ( 2.00    -0.2377)  ( 2.00    -0.2376)  ( 0.00    -0.0502)

 CYCLE    7
  SDIIS (wt  1.000): -0.0004  0.0113  0.0027  0.0765  0.3291  0.5809
  DIIS coefficients: -0.0004  0.0113  0.0027  0.0765  0.3291  0.5809
 SCF Error: norm([F,P])=      0.002082207236, max([F,P])=      0.000509398392
 orbitals (Q,E):
 ---------------
 A :12...22          ( 2.00    -0.4791)  ( 2.00    -0.4181)  ( 2.00    -0.4075)  ( 2.00    -0.3827)
                     ( 2.00    -0.3824)  ( 2.00    -0.3375)  ( 2.00    -0.3105)  ( 2.00    -0.3104)
                     ( 2.00    -0.2378)  ( 2.00    -0.2378)  ( 0.00    -0.0503)

 CYCLE    8
  SDIIS (wt  1.000):  0.0007  0.0010  0.0001  0.0147  0.0806  0.4952  0.4077
  DIIS coefficients:  0.0007  0.0010  0.0001  0.0147  0.0806  0.4952  0.4077
 SCF Error: norm([F,P])=      0.002027735298, max([F,P])=      0.000477981558
 orbitals (Q,E):
 ---------------
 A :12...22          ( 2.00    -0.4791)  ( 2.00    -0.4181)  ( 2.00    -0.4075)  ( 2.00    -0.3827)
                     ( 2.00    -0.3825)  ( 2.00    -0.3376)  ( 2.00    -0.3105)  ( 2.00    -0.3105)
                     ( 2.00    -0.2379)  ( 2.00    -0.2378)  ( 0.00    -0.0504)

 CYCLE    9
  SDIIS (wt  1.000):  0.0002 -0.0001 -0.0000  0.0013  0.0088  0.0736  0.0762  0.8401
  DIIS coefficients:  0.0002 -0.0001 -0.0000  0.0013  0.0088  0.0736  0.0762  0.8401
 SCF Error: norm([F,P])=      0.000086068192, max([F,P])=      0.000024545991
 orbitals (Q,E):
 ---------------
 A :12...22          ( 2.00    -0.4791)  ( 2.00    -0.4181)  ( 2.00    -0.4075)  ( 2.00    -0.3827)
                     ( 2.00    -0.3825)  ( 2.00    -0.3376)  ( 2.00    -0.3105)  ( 2.00    -0.3105)
                     ( 2.00    -0.2379)  ( 2.00    -0.2378)  ( 0.00    -0.0504)

 CYCLE   10
  SDIIS (wt  1.000):  0.0001 -0.0001 -0.0000 -0.0003 -0.0006  0.0077  0.0171  0.5830  0.3933
  DIIS coefficients:  0.0001 -0.0001 -0.0000 -0.0003 -0.0006  0.0077  0.0171  0.5830  0.3933
 SCF Error: norm([F,P])=      0.000103266186, max([F,P])=      0.000026778066
 orbitals (Q,E):
 ---------------
 A :12...22          ( 2.00    -0.4791)  ( 2.00    -0.4181)  ( 2.00    -0.4075)  ( 2.00    -0.3827)
                     ( 2.00    -0.3825)  ( 2.00    -0.3376)  ( 2.00    -0.3105)  ( 2.00    -0.3105)
                     ( 2.00    -0.2379)  ( 2.00    -0.2378)  ( 0.00    -0.0504)

 CYCLE   11
  SDIIS (wt  1.000):  0.0000 -0.0000 -0.0000  0.0000 -0.0000 -0.0001 -0.0002 -0.0055  0.0018  1.0041
  DIIS coefficients:  0.0000 -0.0000 -0.0000  0.0000 -0.0000 -0.0001 -0.0002 -0.0055  0.0018  1.0041
 SCF Error: norm([F,P])=      0.000001300654, max([F,P])=      0.000000326158
 orbitals (Q,E):
 ---------------
 A :12...22          ( 2.00    -0.4791)  ( 2.00    -0.4181)  ( 2.00    -0.4075)  ( 2.00    -0.3827)
                     ( 2.00    -0.3825)  ( 2.00    -0.3376)  ( 2.00    -0.3105)  ( 2.00    -0.3105)
                     ( 2.00    -0.2379)  ( 2.00    -0.2378)  ( 0.00    -0.0504)

 SCF CONVERGED

 CYCLE   12
1
 ***************************************************************************************************



                                                *******************
                                                *  R E S U L T S  *
                                                *******************
  
 *** Using FIT density in Focky
  SDIIS (wt  1.000): -0.0000 -0.0000  0.0000 -0.0000 -0.0001 -0.0001 -0.0027 -0.0007  0.2039  0.7997
  DIIS coefficients: -0.0000 -0.0000  0.0000 -0.0000 -0.0001 -0.0001 -0.0027 -0.0007  0.2039  0.7997
 SCF Error: norm([F,P])=      0.000000093952, max([F,P])=      0.000000024468

 Orbital Energies, per Irrep and Spin:
 ======================================
                        Occup              E (au)              E (eV)       Diff (eV) with prev. cycle
                        -----      --------------------        ------       --------------------------
 A
              12        2.000     -0.47913310837042E+00       -13.038               4.36E-08
              13        2.000     -0.41810928819178E+00       -11.377               7.25E-08
              14        2.000     -0.40754919358167E+00       -11.090               6.52E-08
              15        2.000     -0.38269305333610E+00       -10.414               3.79E-08
              16        2.000     -0.38246871539776E+00       -10.408               5.10E-08
              17        2.000     -0.33757986815826E+00        -9.186               1.83E-08
              18        2.000     -0.31054130413533E+00        -8.450               6.95E-08
              19        2.000     -0.31046283143822E+00        -8.448               5.42E-08
              20        2.000     -0.23788032101262E+00        -6.473               1.57E-08
              21        2.000     -0.23782197754970E+00        -6.471               4.11E-08
              22        0.000     -0.50385092368172E-01        -1.371
              23        0.000     -0.50334073113939E-01        -1.370
              24        0.000      0.20340117893586E-02         0.055
              25        0.000      0.27837843456823E-01         0.758
              26        0.000      0.27862653743306E-01         0.758
              27        0.000      0.60711689583566E-01         1.652
              28        0.000      0.60762305092596E-01         1.653
              29        0.000      0.90659344887154E-01         2.467
              30        0.000      0.96119112047695E-01         2.616
              31        0.000      0.14212252167416E+00         3.867
  
 HOMO :       21 A                -0.23782197754970E+00
 LUMO :       22 A                -0.50385092368172E-01
  


 All Electron Calculation, thus no Orbital Energies of the Core Orbitals are calculated


 Fit test: (difference of exact and fit density, squared integrated, result summed over spins)
         Sum-of-Fragments:                             0.00000000048365
         Orthogonalized Fragments:                     0.00013298915315
         SCF:                                          0.00048706577816



 ==========================
 Electron Density at Nuclei
 ==========================
  
 The electron density is calculated at points on a small sphere around the center of a nucleus.
 The printed electron density is the average electron density on these points.
 The radius of the sphere is the printed approximate finite nuclear radius.

         Atom        Nuclear Radius (Angstrom)             Electron Density (a.u.)
         ----        -------------------------             -----------------------
     1)   C                 0.0000320678                              126.51448
     2)   C                 0.0000320678                              126.51628
     3)   C                 0.0000320678                              126.51515
     4)   C                 0.0000320678                              126.51435
     5)   C                 0.0000320678                              126.51513
     6)   C                 0.0000320678                              126.51410
     7)   H                 0.0000181514                                0.49882
     8)   H                 0.0000181514                                0.49876
     9)   H                 0.0000181514                                0.49864
    10)   H                 0.0000181514                                0.49867
    11)   H                 0.0000181514                                0.49857
    12)   H                 0.0000181514                                0.49865



 =======================================
 M U L L I K E N   P O P U L A T I O N S
 =======================================
  
 The survey below gives for each atom:
 a) the total charge (Z minus electrons)
 b) the net spin polarization (nr of electrons spin-A minus spin-B)
 c) for each spin the atomic electron valence density (integrated) per L-value.

 Atom              Charge    Spin density          S         P         D         F
 ----              ------    ------------       ------    ------    ------    ------
 1 C               0.1754                       3.0649    2.6987    0.0610    0.0000
 2 C               0.1762                       3.0644    2.6984    0.0611    0.0000
 3 C               0.1759                       3.0644    2.6986    0.0610    0.0000
 4 C               0.1753                       3.0650    2.6987    0.0609    0.0000
 5 C               0.1753                       3.0655    2.6983    0.0609    0.0000
 6 C               0.1751                       3.0655    2.6985    0.0609    0.0000
 7 H              -0.1760                       1.1046    0.0714    0.0000    0.0000
 8 H              -0.1757                       1.1043    0.0714    0.0000    0.0000
 9 H              -0.1750                       1.1037    0.0714    0.0000    0.0000
 10 H             -0.1758                       1.1044    0.0715    0.0000    0.0000
 11 H             -0.1756                       1.1041    0.0714    0.0000    0.0000
 12 H             -0.1750                       1.1037    0.0714    0.0000    0.0000

 Populations of individual BAS functions
 ----------------------------------------
 1 C            0.4869  1.5144  0.2298  0.8872 -0.0535 -0.1033  0.1474 -0.2378  0.8054  0.6780
                0.8823  0.2001  0.1366  0.1899  0.0268  0.0122  0.0174 -0.0175  0.0040  0.0181
 2 C            0.4870  1.5144  0.2291  0.8874 -0.0535 -0.2027  0.1470 -0.1395  0.8622  0.6782
                0.8264  0.1927  0.1366  0.1975  0.0181  0.0062  0.0221 -0.0176  0.0100  0.0222
 3 C            0.4870  1.5144  0.2292  0.8874 -0.0535 -0.2075  0.1472 -0.1344  0.8648  0.6782
                0.8235  0.1923  0.1366  0.1979  0.0180  0.0059  0.0216 -0.0175  0.0103  0.0227
 4 C            0.4869  1.5144  0.2299  0.8872 -0.0535 -0.1033  0.1475 -0.2378  0.8054  0.6780
                0.8823  0.2000  0.1366  0.1899  0.0268  0.0122  0.0174 -0.0175  0.0040  0.0181
 5 C            0.4870  1.5144  0.2304  0.8873 -0.0535 -0.2022  0.1475 -0.1396  0.8620  0.6780
                0.8264  0.1925  0.1366  0.1971  0.0181  0.0062  0.0220 -0.0175  0.0100  0.0221
 6 C            0.4869  1.5145  0.2304  0.8872 -0.0535 -0.2070  0.1476 -0.1345  0.8646  0.6780
                0.8235  0.1922  0.1366  0.1975  0.0179  0.0059  0.0216 -0.0175  0.0103  0.0227
 7 H            0.2098  0.5759  0.3188  0.0289  0.0217  0.0208
 8 H            0.2094  0.5761  0.3188  0.0295  0.0217  0.0202
 9 H            0.2086  0.5762  0.3189  0.0162  0.0217  0.0334
 10 H           0.2097  0.5759  0.3188  0.0288  0.0217  0.0209
 11 H           0.2092  0.5762  0.3188  0.0294  0.0217  0.0202
 12 H           0.2085  0.5762  0.3189  0.0162  0.0217  0.0334

 Gross Charges per Atom (Z minus electrons)
 ==========================================
             0.1754    0.1762    0.1759    0.1753    0.1753    0.1751   -0.1760   -0.1757   -0.1750   -0.1758
            -0.1756   -0.1750
 Net Total: -0.00000000


 Atom-Atom Population Matrix (off-diagonal elements not doubled)
 ===============================================================

     1 :     4.5229
     2 :     0.5419    4.5216
     3 :    -0.0107    0.5420    4.5217
     4 :    -0.0557   -0.0106    0.5419    4.5230
     5 :    -0.0105   -0.0555   -0.0107    0.5416    4.5229
     6 :     0.5417   -0.0107   -0.0555   -0.0106    0.5415    4.5230
     7 :    -0.0536    0.3939   -0.0535    0.0022    0.0041    0.0022    0.9825
     8 :     0.0022   -0.0535    0.3939   -0.0536    0.0022    0.0041   -0.0478    0.9821
     9 :     0.0041    0.0021   -0.0535    0.3939   -0.0533    0.0021   -0.0038   -0.0477    0.9808
    10 :     0.0021    0.0041    0.0021   -0.0537    0.3938   -0.0535    0.0015   -0.0038   -0.0475    0.9819
    11 :    -0.0537    0.0021    0.0041    0.0021   -0.0534    0.3939   -0.0038    0.0015   -0.0038   -0.0474
             0.9815
    12 :     0.3939   -0.0535    0.0022    0.0041    0.0021   -0.0533   -0.0477   -0.0038    0.0016   -0.0039
            -0.0475    0.9808



 =================================================
 H I R S H F E L D   C H A R G E   A N A L Y S I S
 =================================================
  
 For each fragment: the (numerical) integral of rho(scf) * rho(fragment)/rho(sum-of-fragments)
 (nuclear charges are included, electrons are counted negative)

 The fragments and their ordering are defined in the early G E O M E T R Y output section.
 If you use single-atom fragments, this usually implies that all atoms of the same
 chemical type are grouped together. This may not be the order in which you listed them
 in the input file!

    1  C                        -0.0463
    2  C                        -0.0464
    3  C                        -0.0464
    4  C                        -0.0463
    5  C                        -0.0462
    6  C                        -0.0462
    7  H                         0.0463
    8  H                         0.0463
    9  H                         0.0462
   10  H                         0.0463
   11  H                         0.0463
   12  H                         0.0462

 Sum of these charges (accuracy NumInt/Tails) =          -0.00005966



 =============================
 V O R O N O I   C H A R G E S
 =============================
  
 For each atom: the (numerical) integral of the total electronic charge density in its Voronoi cell,
 i.e. the region of space that is closer to that atom than to any other atom.
 (cf. Wigner-Seitz cells in crystals)

 Within the Voronoi cell the subintegrals over the atomic sphere and the remaining part are evaluated
 separately to give the numbers of electrons (negative charge) in these regions.
 The net total charge in the cell (including the nuclear charge) is also given.

 Values are provided for
    a) the Initial (sum-of-fragments) density
    b) the Orthogonalized-Fragments density
    c) the SCF density
    d) the Voronoi Deformation Density (VDD): the difference SCF-Initial for the complete atomic cell


  Atom                Initial                    OrthFrag                   SCF
             Sphere RestCell NetTotal   Sphere RestCell NetTotal   Sphere RestCell NetTotal      VDD
 -----       ------------------------   ------------------------   ------------------------    -----
    1 C      -2.269   -3.188    0.544   -2.452   -3.139    0.409   -2.303   -3.209    0.488   -0.055
    2 C      -2.269   -3.191    0.541   -2.452   -3.137    0.410   -2.303   -3.208    0.489   -0.051
    3 C      -2.269   -3.190    0.541   -2.452   -3.142    0.405   -2.303   -3.212    0.485   -0.057
    4 C      -2.268   -3.185    0.547   -2.452   -3.137    0.411   -2.303   -3.206    0.491   -0.056
    5 C      -2.268   -3.191    0.541   -2.452   -3.138    0.411   -2.303   -3.207    0.490   -0.051
    6 C      -2.268   -3.189    0.543   -2.452   -3.142    0.407   -2.303   -3.211    0.486   -0.056
    7 H      -0.075   -1.473   -0.548   -0.096   -1.318   -0.413   -0.109   -1.384   -0.493    0.055
    8 H      -0.075   -1.464   -0.539   -0.096   -1.309   -0.405   -0.109   -1.375   -0.484    0.055
    9 H      -0.075   -1.468   -0.543   -0.096   -1.314   -0.410   -0.109   -1.380   -0.489    0.053
   10 H      -0.075   -1.473   -0.548   -0.096   -1.318   -0.413   -0.109   -1.384   -0.493    0.055
   11 H      -0.075   -1.467   -0.541   -0.096   -1.311   -0.406   -0.109   -1.377   -0.485    0.056
   12 H      -0.075   -1.463   -0.538   -0.096   -1.311   -0.406   -0.109   -1.377   -0.486    0.052
 ---------------------------------------------------------------------------------------------------
 Total NetCharge:              -0.000                     -0.000                     -0.000    0.000
 (accuracy NumInt/Tails)

 Remark: the 'NetTotal' Voronoi charges often do not match the Mulliken and/or Hirshfeld charges very
 well. This is caused by the fact that chemically different atoms are not treated in accordance with
 their relative sizes. (Voronoi cells are defined by boundary planes halfway between the atoms.)
 However, the CHANGES in charge, comparing 'Initial' to 'SCF' for instance, do give a fair indication
 of the flow of charge caused by the relaxation from sum-of-fragments to self-consistency.

 Warning: the absolute accuracy of the VDD charges obtained using the Fuzzy Cells (Becke) integration
 scheme is much poorer than the one obtained with an 'equivalent' Voronoi integration grid. 



 =================================================================
 M U L T I P O L E   D E R I V E D   C H A R G E   A N A L Y S I S
 =================================================================

 This charge analysis uses the atomic multipoles (obtained from the fitted density) up to some level X,
 and reconstructs these multipoles exactly (up to level X) by distributing charges over all atoms.
 This is achieved by using Lagrange multipliers and a weight function to keep the multipoles local.

 Dummy atoms can be included (by setting INCDUM in MDC-block to 1) to obtain a fractional charge.
 This is generally useful and necessary only for small symmetrical molecules, when there are not
 enough degrees of freedom to reconstruct the multipoles.

 Since the atomic multipoles are reconstructed up to level X,
 the molecular multipoles are represented also up to level X.
 The recommended level is to reconstruct up to quadrupole : -> MDC-q charges.

 See: M. Swart, P.Th. van Duijnen, J.G. Snijders, J.Comput.Chem., (2001), p. 79-88.

 ------------------------------------------------------------- 
 Atomic electronic multipole moments from SCF equations (a.u.)
 ------------------------------------------------------------- 

   atom        charge        dip-x     dip-y     dip-z      quad-xx   quad-xy   quad-xz   quad-yy   quad-yz   quad-zz
 --------------------------------------------------------------------------------------------------------------------
    1 C      0.060866     0.000242  0.000000 -0.047132     0.468930 -0.000000 -0.000205 -0.996600 -0.000000  0.527670
    2 C      0.060478    -0.042185  0.000000 -0.025302     0.508522 -0.000000  0.014285 -0.993521 -0.000000  0.484999
    3 C      0.060614    -0.042616 -0.000000  0.023014     0.512158 -0.000000 -0.014398 -0.994600  0.000000  0.482442
    4 C      0.060863    -0.001743  0.000000  0.047120     0.468894 -0.000000 -0.001324 -0.996663 -0.000000  0.527770
    5 C      0.060434     0.041952  0.000000  0.025926     0.508975 -0.000000  0.015516 -0.994144  0.000000  0.485169
    6 C      0.060564     0.042288  0.000000 -0.023796     0.512489 -0.000000 -0.015590 -0.995161 -0.000000  0.482671
    7 H     -0.060692    -0.019447  0.000000 -0.011670     0.160463  0.000000  0.080322 -0.195347 -0.000000  0.034884
    8 H     -0.060680    -0.019846  0.000000  0.010733     0.170878 -0.000000 -0.076396 -0.195653  0.000000  0.024775
    9 H     -0.060667    -0.000851  0.000000  0.022631    -0.038549  0.000000 -0.004308 -0.194896 -0.000000  0.233444
   10 H     -0.060558     0.019459  0.000000  0.012049     0.160136 -0.000000  0.080703 -0.195396  0.000000  0.035260
   11 H     -0.060545     0.019833  0.000000 -0.011189     0.170435  0.000000 -0.076834 -0.195688  0.000000  0.025253
   12 H     -0.060676     0.000126  0.000000 -0.022625    -0.038579  0.000000 -0.003436 -0.194888  0.000000  0.233467

 --------------------------------------- 
 Multipole derived atomic charges (a.u.)
 --------------------------------------- 

 The MDC-m charges are just the Monopole terms in the multipole expansion, while for the MDC-d charges
 also the Dipoles are reconstructed. The usually preferred charges are the MDC-q charges.
 These reconstruct the Monopoles, Dipoles and Quadrupoles (both atomic AND molecular).

        Atom    Level:     MDC-m        MDC-d        MDC-q
 ---------------------------------------------------------
     1     C            0.060866     0.034948    -0.125978
     2     C            0.060478     0.034778    -0.127975
     3     C            0.060614     0.034906    -0.127774
     4     C            0.060863     0.034900    -0.125982
     5     C            0.060434     0.034220    -0.128137
     6     C            0.060564     0.034385    -0.127890
     7     H           -0.060692    -0.034415     0.127624
     8     H           -0.060680    -0.034686     0.127382
     9     H           -0.060667    -0.035072     0.126711
    10     H           -0.060558    -0.034304     0.127798
    11     H           -0.060545    -0.034574     0.127523
    12     H           -0.060676    -0.035085     0.126699

 ------------------------------------------------ 
 Average absolute deviations in atomic multipoles
 ------------------------------------------------ 

 Stated here are the average differences between the atomic multipoles
 and the reconstructed atomic multipoles (from the distributed charges).
 If these values are not zero, this means there are not enough degrees of freedom,
 to be able to reconstruct the atomic multipoles. (This usually happens only
 for small and/or highly symmetric molecules). If this is the case, one could add
 dummy atoms as extra point charges (and setting INCDUM in MDC-block to 1).

 Level:                                 MDC-d        MDC-q
 ---------------------------------------------------------
 Charge   (a.u.)                       0.0000       0.0000
 Dipole   (Debye)                      0.0000       0.0000
 Quad.    (a.u.)                       0.2134       0.0000

 --------------------------------------- 
 Represented molecular multipole moments
 --------------------------------------- 

 Given here are the Molecular multipole moments from the atomic charges, and from the Fit Density.
 Note that the atomic charges represent the latter, NOT the ones from the Exact density.

            Q (a.u.)             Dipole moment (Debye)                                          Quadrupole moment (a.u.)
                                 x         y         z              xx        xy        xz        yy        yz        zz
------------------------------------------------------------------------------------------------------------------------
MDC-m         0.0000        0.0043    0.0000    0.0004         -1.3797    0.0193   -0.0014    2.7586    0.0017   -1.3790
MDC-d         0.0000       -0.0028    0.0000   -0.0002         -0.7729   -0.0123    0.0073    1.5782   -0.0011   -0.8053
MDC-q         0.0000       -0.0028    0.0000   -0.0002          2.9009   -0.0123    0.0052   -5.7910   -0.0011    2.8901
 
Fit.Dens.     0.0000       -0.0028    0.0000   -0.0002          2.9009   -0.0123    0.0044   -5.7910   -0.0011    2.8901



 =============
 Dipole Moment  ***  (Debye)  ***
 =============
  
 Vector   :        -0.00277764     -0.00000014     -0.00026538
 Magnitude:         0.00279029

 This molecular dipole moment is calculated with analytic integration



 =========================================
 Quadrupole Moment (Buckingham convention)  ***  (a.u.)  ***
 =========================================
  
      quad-xx        quad-xy        quad-xz        quad-yy        quad-yz        quad-zz
      2.91230352    -0.01239048     0.00262965    -5.81938836    -0.00118392     2.90708484

 This molecular quadrupole moment is calculated with analytic integration
1



 =======================================================
 S F O   P O P U L A T I O N S ,   M O   A N A L Y S I S
 =======================================================
  
 A Mulliken population analysis is performed on (input-)selected MOs. All populations refer to SFOs.
 BAS populations may have been printed directly after the SCF part.


                                       === A ===


 SFO contributions (%) per orbital
 (multiplication by the orbital occupation yields the SFO Gross Populations)

 Orb.:       12     13     14     15     16     17     18     19     20     21     22     23     24     25
 occup:     2.00   2.00   2.00   2.00   2.00   2.00   2.00   2.00   2.00   2.00   0.00   0.00   0.00   0.00
 CF+SFO     ----   ----   ----   ----   ----   ----   ----   ----   ----   ----   ----   ----   ----   ----
 ------
      2:    0.24   4.04   0.00  -0.00   0.03  -0.00  -0.00  -0.06   0.00   0.00  -0.00   0.00  -0.24   0.01
      3:   -0.08   0.11  -0.00  -0.00  -0.18   0.00  -0.00  -0.02   0.00   0.00   0.00   0.00  -2.69  -0.11
      6:    0.00   0.00  14.44   0.43  -0.00  -0.00   9.00   0.18  -0.00  -0.00  -0.00   0.00   0.00  -1.72
      7:    0.00   0.00   2.00   0.66   0.00   0.00   3.00   0.06  -0.00  -0.00  -0.00   0.00  -0.00  -8.02
      9:    0.00  -0.00   0.00   0.00   0.00  17.23  -0.00   0.00   0.29  31.47   0.43  34.06  -0.00   0.00
     10:    0.00   0.00  -0.00   0.00   0.00  -0.98  -0.00   0.00   0.00   0.11  -0.05  -3.80  -0.00   0.00
     12:   10.70   2.58   0.01   0.31  17.48   0.00   0.12   5.75  -0.00   0.00  -0.00  -0.00   0.73   0.16
     13:    0.23   0.28   0.00   0.01   1.25   0.00   0.04   1.43  -0.00  -0.00   0.00  -0.00  -0.51  -1.81
     17:    0.00   0.00   0.00  -0.00  -0.00   0.00  -0.00   0.00   0.60   0.01   1.12   0.02  -0.00   0.00
     21:    0.24   4.03   0.00   0.03   0.01   0.00  -0.05  -0.01   0.00   0.00  -0.00  -0.00  -0.25   0.01
     22:   -0.08   0.11   0.00  -0.16  -0.03   0.00  -0.02  -0.00  -0.00  -0.00   0.00  -0.00  -2.69  -0.20
     25:    7.84   1.94   3.85  10.12   2.92   0.00   6.49   0.26  -0.00   0.00   0.00   0.00   0.53  -0.76
     26:    0.17   0.21   0.54   0.24   0.85  -0.00   1.99  -0.09  -0.00  -0.00   0.00   0.00  -0.38  -8.84
     28:    0.00   0.00  -0.00  -0.00  -0.00  17.28   0.00  -0.00  26.23   5.46  22.30  12.12   0.00   0.00
     29:    0.00  -0.00   0.00  -0.00  -0.00  -0.98   0.00  -0.00   0.10   0.02  -2.49  -1.36   0.00  -0.00
     31:    2.89   0.71  10.56   5.10  -0.07  -0.00  -0.12   8.41  -0.00  -0.00   0.00   0.00   0.20  -0.40
     32:    0.06   0.08   1.46   0.93  -0.11  -0.00  -0.28   2.92   0.00   0.00  -0.00  -0.00  -0.14  -1.22
     40:    0.24   4.04   0.00   0.02   0.02   0.00  -0.04  -0.02   0.00   0.00  -0.00   0.00  -0.24   0.04
     41:   -0.08   0.11  -0.00  -0.11  -0.07   0.00  -0.01  -0.01   0.00   0.00  -0.00   0.00  -2.70  -0.60
     44:    8.23   2.02   3.32   7.21   6.49   0.00   6.79  -0.16  -0.00  -0.00   0.00   0.00   0.56   0.46
     45:    0.18   0.22   0.46  -0.09   1.21  -0.00   2.19  -0.35  -0.00  -0.00   0.00  -0.00  -0.40  -9.21
     47:   -0.00  -0.00  -0.00   0.00   0.00  17.28  -0.00   0.00  21.00  10.71  28.87   5.55   0.00   0.00
     48:   -0.00   0.00   0.00   0.00   0.00  -0.98  -0.00   0.00   0.08   0.04  -3.23  -0.62  -0.00  -0.00
     50:    2.49   0.61  11.10   3.99   0.41   0.00   0.27   8.15   0.00   0.00   0.00  -0.00   0.17   0.26
     51:    0.06   0.06   1.54   1.13  -0.33   0.00  -0.15   2.84  -0.00  -0.00   0.00   0.00  -0.12  -1.84
     59:    0.24   4.04   0.00   0.00   0.03  -0.00  -0.00  -0.06  -0.00  -0.00  -0.00   0.00  -0.24   0.01
     60:   -0.08   0.11   0.00  -0.00  -0.18   0.00  -0.00  -0.02  -0.00  -0.00  -0.00   0.00  -2.69  -0.11
     63:    0.01   0.00  14.44   0.43  -0.00  -0.00   9.00   0.18   0.00   0.00  -0.00  -0.00   0.00  -1.71
     64:    0.00   0.00   2.00   0.67   0.00   0.00   2.99   0.06  -0.00  -0.00   0.00  -0.00  -0.00  -7.98
     66:    0.00   0.00   0.00  -0.00   0.00  17.22   0.00   0.00   0.30  31.47   0.41  34.09   0.00   0.00
     67:    0.00   0.00   0.00  -0.00   0.00  -0.98   0.00  -0.00   0.00   0.11  -0.05  -3.81   0.00   0.00
     69:   10.70   2.58   0.01   0.32  17.48   0.00   0.14   5.73   0.00  -0.00  -0.00  -0.00   0.73   0.16
     70:    0.23   0.28   0.00   0.01   1.25  -0.00   0.04   1.43  -0.00  -0.00   0.00  -0.00  -0.51  -1.82
     74:    0.00   0.00   0.00  -0.00   0.00   0.00   0.00   0.00   0.60   0.01   1.12   0.02   0.00   0.00
     78:    0.24   4.01   0.00   0.03   0.01   0.00  -0.05  -0.01  -0.00   0.00   0.00  -0.00  -0.24   0.01
     79:   -0.08   0.11   0.00  -0.16  -0.03   0.00  -0.02  -0.00  -0.00   0.00   0.00  -0.00  -2.68  -0.20
     82:    7.80   1.94   3.90  10.16   2.93   0.00   6.47   0.27  -0.00   0.00   0.00  -0.00   0.53  -0.75
     83:    0.17   0.21   0.53   0.24   0.86   0.00   1.98  -0.09  -0.00  -0.00  -0.00  -0.00  -0.36  -8.80
     85:   -0.00  -0.00   0.00   0.00   0.00  17.16  -0.00  -0.00  26.36   5.47  22.44  12.14   0.00  -0.00
     86:    0.00  -0.00  -0.00   0.00   0.00  -0.98  -0.00   0.00   0.09   0.02  -2.50  -1.35   0.00   0.00
     88:    2.88   0.70  10.63   5.14  -0.07  -0.00  -0.12   8.37   0.00  -0.00  -0.00  -0.00   0.19  -0.39
     89:    0.06   0.07   1.46   0.93  -0.10   0.00  -0.28   2.90   0.00   0.00   0.00   0.00  -0.13  -1.19
     97:    0.24   4.02   0.00   0.02   0.01   0.00  -0.04  -0.02   0.00  -0.00   0.00   0.00  -0.24   0.04
     98:   -0.08   0.11   0.00  -0.11  -0.07  -0.00  -0.01  -0.01   0.00   0.00  -0.00   0.00  -2.69  -0.61
    101:    8.19   2.02   3.37   7.24   6.51  -0.00   6.79  -0.16  -0.00   0.00  -0.00   0.00   0.55   0.47
    102:    0.18   0.22   0.46  -0.10   1.22  -0.00   2.18  -0.35   0.00   0.00  -0.00   0.00  -0.39  -9.27
    104:    0.00   0.00  -0.00  -0.00   0.00  17.16   0.00  -0.00  21.11  10.71  29.03   5.54   0.00  -0.00
    105:    0.00   0.00   0.00  -0.00   0.00  -0.98   0.00  -0.00   0.08   0.04  -3.24  -0.62  -0.00  -0.00
    107:    2.49   0.60  11.16   4.03   0.42   0.00   0.27   8.11  -0.00   0.00  -0.00   0.00   0.17   0.26
    108:    0.05   0.06   1.54   1.14  -0.33  -0.00  -0.15   2.82   0.00  -0.00   0.00   0.00  -0.12  -1.83
    115:    5.55   9.22   0.00  11.06   1.81   0.00  11.33   2.05   0.00   0.00   0.00  -0.00   7.84   7.18
    116:   -0.02   0.16   0.00   0.13   0.02   0.00  -0.17  -0.03   0.00  -0.00   0.00   0.00  11.32  10.65
    121:    5.55   9.18   0.00   8.09   4.83   0.00   8.55   4.84   0.00   0.00  -0.00   0.00   7.84  21.78
    122:   -0.02   0.16   0.00   0.10   0.06  -0.00  -0.13  -0.07   0.00  -0.00  -0.00   0.00  11.33  32.35
    125:    0.00   0.00  -0.00  -0.00   0.00   0.26   0.00  -0.00   0.55   0.28   1.15   0.22  -0.00  -0.00
    127:    5.53   9.09  -0.00   0.24  12.77  -0.00   0.20  13.16   0.00   0.00  -0.00   0.00   7.81   3.94
    128:   -0.02   0.16  -0.00   0.00   0.16   0.00  -0.00  -0.19   0.00   0.00  -0.00   0.00  11.27   5.84
    131:   -0.00  -0.00  -0.00   0.00  -0.00   0.25   0.00   0.00   0.01   0.82   0.02   1.35  -0.00  -0.00
    133:    5.53   9.19   0.00  11.13   1.83  -0.00  11.27   2.04   0.00   0.00   0.00   0.00   7.76   7.21
    134:   -0.02   0.16  -0.00   0.13   0.02   0.00  -0.17  -0.03  -0.00   0.00   0.00   0.00  11.21  10.74
    139:    5.53   9.15   0.00   8.12   4.87   0.00   8.51   4.81   0.00  -0.00   0.00  -0.00   7.78  21.88
    140:   -0.02   0.16  -0.00   0.10   0.06  -0.00  -0.12  -0.07  -0.00  -0.00   0.00  -0.00  11.24  32.52
    143:   -0.00  -0.00   0.00   0.00   0.00   0.25  -0.00   0.00   0.55   0.28   1.16   0.22   0.00  -0.00
    145:    5.53   9.09  -0.00   0.25  12.76  -0.00   0.19  13.17   0.00   0.00  -0.00   0.00   7.81   3.95
    146:   -0.02   0.16  -0.00   0.00   0.16  -0.00  -0.00  -0.19   0.00   0.00  -0.00   0.00  11.28   5.89
    149:    0.00  -0.00  -0.00  -0.00   0.00   0.25   0.00  -0.00   0.01   0.82   0.02   1.35   0.00   0.00


 Summation over all MOs, multiplied by occupation: Total SFO Gross Populations in this Irrep
 ===========================================================================================

     2.00    1.07   -0.01   -0.00   -0.00    0.84    0.07   -0.01    0.98   -0.02   -0.00    0.81
     0.03   -0.01    0.02    0.01    0.01    0.02    0.00    2.00    1.07   -0.01   -0.00   -0.00
     0.82    0.04   -0.01    0.98   -0.02   -0.00    0.83    0.06   -0.01    0.02    0.01    0.01
     0.02    0.01    2.00    1.07   -0.01   -0.00   -0.00    0.82    0.04   -0.01    0.98   -0.02
    -0.00    0.83    0.06   -0.01    0.02    0.01    0.01    0.02    0.01    2.00    1.07   -0.01
    -0.00   -0.00    0.84    0.07   -0.01    0.98   -0.02   -0.00    0.81    0.03   -0.01    0.02
     0.01    0.01    0.02    0.00    2.00    1.07   -0.01   -0.00   -0.00    0.82    0.04   -0.01
     0.98   -0.02   -0.00    0.83    0.06   -0.01    0.02    0.01    0.01    0.02    0.01    2.00
     1.07   -0.01   -0.00   -0.00    0.82    0.04   -0.01    0.98   -0.02   -0.00    0.83    0.06
    -0.01    0.02    0.01    0.01    0.02    0.01    1.11   -0.00   -0.00    0.03    0.02    0.02
     1.11   -0.00   -0.00    0.03    0.02    0.02    1.11   -0.00   -0.00    0.02    0.02    0.03
     1.11   -0.00   -0.00    0.03    0.02    0.02    1.11   -0.00   -0.00    0.03    0.02    0.02
     1.11   -0.00   -0.00    0.02    0.02    0.03



 List of all MOs, ordered by energy, with the most significant SFO gross populations
 ===================================================================================

 Each percentage contribution in the table below corresponds to the indicated SFO.
 In general, a SFO may be a linear combination of several Fragment Orbitals on the same,
 or on symmetry-related Fragments. Only the first 'member' of such a combination is
 specified here. A full definition of all SFOs is given in an earlier part of the output.
 The numbering of the SFOs in this table does NOT include the Core Orbitals, and starts
 from one for each symmetry representation, as in the SFO definition list earlier.

       E(eV)  Occ       MO           %     SFO (first member)   E(eV)  Occ   Fragment
 -------------------------------------------------------------------------------------

     -21.394  2.00     7 A         14.66%     2 S             -13.876  2.00     2 C
                                   14.65%     2 S             -13.876  2.00     3 C
                                   14.60%     2 S             -13.876  2.00     1 C
                                   14.59%     2 S             -13.876  2.00     4 C
                                   14.54%     2 S             -13.876  2.00     6 C
                                   14.53%     2 S             -13.876  2.00     5 C
                                    2.37%     1 P:z            -5.403  0.67     1 C
                                    2.37%     1 P:z            -5.403  0.67     4 C
                                    1.82%     1 P:x            -5.403  0.67     6 C
                                    1.82%     1 P:x            -5.403  0.67     3 C
                                    1.74%     1 P:x            -5.403  0.67     2 C
                                    1.74%     1 P:x            -5.403  0.67     5 C
                                    1.25%     1 S              -6.626  1.00     7 H
                                    1.24%     1 S              -6.626  1.00     8 H
                                    1.24%     1 S              -6.626  1.00    12 H
                                    1.23%     1 S              -6.626  1.00     9 H
                                    1.23%     1 S              -6.626  1.00    10 H
                                    1.23%     1 S              -6.626  1.00    11 H
     -18.622  2.00     8 A         20.89%     2 S             -13.876  2.00     5 C
                                   20.76%     2 S             -13.876  2.00     2 C
                                   12.85%     2 S             -13.876  2.00     6 C
                                   12.75%     2 S             -13.876  2.00     3 C
                                    5.50%     1 P:x            -5.403  0.67     1 C
                                    5.50%     1 P:x            -5.403  0.67     4 C
                                    5.14%     1 S              -6.626  1.00    10 H
                                    5.13%     1 S              -6.626  1.00     7 H
                                    3.15%     1 S              -6.626  1.00    11 H
                                    3.14%     1 S              -6.626  1.00     8 H
                                    2.39%     1 P:z            -5.403  0.67     3 C
                                    2.38%     1 P:z            -5.403  0.67     6 C
                                   -1.62%     2 P:x             4.709  0.00     1 C
                                   -1.62%     2 P:x             4.709  0.00     4 C
     -18.619  2.00     9 A         22.10%     2 S             -13.876  2.00     1 C
                                   22.07%     2 S             -13.876  2.00     4 C
                                   10.27%     2 S             -13.876  2.00     3 C
                                   10.26%     2 S             -13.876  2.00     6 C
                                    5.44%     1 S              -6.626  1.00    12 H
                                    5.44%     1 S              -6.626  1.00     9 H
                                    3.52%     1 P:z            -5.403  0.67     2 C
                                    3.49%     1 P:z            -5.403  0.67     5 C
                                    2.53%     1 S              -6.626  1.00     8 H
                                    2.53%     1 S              -6.626  1.00    11 H
                                    2.25%     2 S             -13.876  2.00     2 C
                                    2.24%     2 S             -13.876  2.00     5 C
                                    1.99%     1 P:z            -5.403  0.67     3 C
                                    1.97%     1 P:z            -5.403  0.67     6 C
                                    1.66%     1 P:x            -5.403  0.67     2 C
                                    1.65%     1 P:x            -5.403  0.67     5 C
[...]
       10        delta  0.1200097993278E+00
 CRIT  9.675631242406103E-003
 iter. 11 V(1) measure  0.8938778393746E+05
       11        delta  0.3282498553745E-02
 *** convergence reached

    RRIJmat_z_z         
    using first order VWN potential
 
    NOTE: We will NOT use the GGA kernel (input option ALDA was set)
 
 CRIT   1.00000000000000     
 iter.  1 V(1) measure  0.1302436861880E+04
 *** convergence criterion : .1302437E-02
 CRIT   160.683476395908     
 iter.  2 V(1) measure  0.1073508387158E+04
        2        delta  0.2289284747221E+03
 CRIT   60.9302784241070     
 iter.  3 V(1) measure  0.1108974370366E+04
        3        delta  0.3546598320789E+02
 CRIT   14.0922100158104     
 iter.  4 V(1) measure  0.1113623954740E+04
        4        delta  0.4649584373572E+01
 CRIT   5.11496847321112     
 iter.  5 V(1) measure  0.1115168034184E+04
        5        delta  0.1544079443742E+01
 CRIT   2.42118254764499     
 iter.  6 V(1) measure  0.1115641385239E+04
        6        delta  0.4733510553219E+00
 CRIT  0.757593864066373     
 iter.  7 V(1) measure  0.1115702846813E+04
        7        delta  0.6146157381522E-01
 CRIT  0.556591094909894     
 iter.  8 V(1) measure  0.1115705527624E+04
        8        delta  0.2680811766595E-02
 CRIT  7.323962447196863E-002
 iter.  9 V(1) measure  0.1115703079934E+04
        9        delta  0.2447690505733E-02
 CRIT  5.051870054900405E-002
 iter. 10 V(1) measure  0.1115701409372E+04
       10        delta  0.1670562431855E-02
 CRIT  5.136857673011056E-003
 iter. 11 V(1) measure  0.1115701524422E+04
       11        delta  0.1150505236183E-03
 *** convergence reached
 ------------------------------------------
 Convergence acceleration: T
 QUADRUPOLE-QUADRUPOLE POLARIZABILITY     
 Frequency  =  0.1322975682     Hartrees
 Wavelength =   344.4005294     nm
 Wavenumber =   29035.96001     cm^{-1}
 Energy     =   3.600000000     eV
 ------------------------------------------
 QUADRUPOLE-QUADRUPOLE Polarizability tensor:
 
 xx xx     4188.86064930165     
 xx xy    0.427475702955596     
 xx xz   -0.199480785554929     
 xx yy    -4991.65508059462     
 xx yz   -0.227679199929491     
 xx zz     802.794431292960     
 xy xx    0.426149571878551     
 xy xy     12591.5486754490     
 xy xz    7.247948416888655E-004
 xy yy     1.41631901647962     
 xy yz   -0.707531348620659     
 xy zz    -1.84246858832960     
 xz xx   -0.200005500833972     
 xz xy    3.269204596847983E-004
 xz xz     1693.66934050527     
 xz yy    0.152380647227478     
 xz yz     1.09071257919214     
 xz zz    4.762485360662506E-002
 yy xx    -4991.75122164985     
 yy xy     1.27669984963786     
 yy xz    0.140617905651386     
 yy yy     9983.75907255436     
 yy yz    0.158072192679289     
 yy zz    -4992.00785090452     
 yz xx   -0.227178386036734     
 yz xy   -0.738339257113496     
 yz xz     1.09455621678732     
 yz yy    0.175383173055520     
 yz yz     12590.9485215397     
 yz zz    5.179521296608186E-002
 zz xx     802.804696015176     
 zz xy    -1.84240973649039     
 zz xz    5.400296581887360E-002
 zz yy    -4991.98171194551     
 zz yz    5.304991157040817E-002
 zz zz     4189.17701593034     
 
 Imaginary QUADRUPOLE-QUADRUPOLE Polarizability tensor:
 
 xx xx     18.7048204981931     
 xx xy    1.731973875355838E-002
 xx xz   -1.931121913011012E-003
 xx yy    -21.5554843792534     
 xx yz   -3.801036107886332E-003
 xx zz     2.85066388106016     
 xy xx    1.727597515429586E-002
 xy xy     124.979029319268     
 xy xz    1.543013727139934E-003
 xy yy    1.975555333117365E-002
 xy yz   -8.383163188585084E-003
 xy zz   -3.703152848520602E-002
 xz xx   -1.768104345105426E-003
 xz xy    1.744588672388026E-003
 xz xz     7.93272451282999     
 xz yy    1.250086269876682E-003
 xz yz    2.669565370920366E-002
 xz zz    5.180180751696673E-004
 yy xx    -21.5128702885743     
 yy xy    0.497812682249574     
 yy xz    1.073524542447520E-003
 yy yy     43.0271423451350     
 yy yz    6.167610900420798E-002
 yy zz    -21.5142720565601     
 yz xx   -4.489068869281066E-003
 yz xy   -7.265090474776389E-003
 yz xz    2.670650717339268E-002
 yz yy    2.536671234825930E-003
 yz yz     124.950647797760     
 yz zz    1.952397634036615E-003
 zz xx     2.85041205573674     
 zz xy   -3.703947028551483E-002
 zz xz    6.020234069340671E-004
 zz yy    -21.5588378020751     
 zz yz    1.300501485625869E-003
 zz zz     18.7084257463387     



 =======================================================================
 Electrostatic potential at the Nuclei due to electrons and other nuclei
 =======================================================================
  
         Atom                  Potential
         ----                  ---------
     1)   C                  14.76891822
     2)   C                  14.76905191
     3)   C                  14.76898512
     4)   C                  14.76887398
     5)   C                  14.76853622
     6)   C                  14.76850507
     7)   H                   1.10118516
     8)   H                   1.10127038
     9)   H                   1.10156612
    10)   H                   1.10100481
    11)   H                   1.10108507
    12)   H                   1.10158543
 
 
 ========================
 No memory problems found
 ========================
 
 Maximum number of active allocate calls:        1279
 
 *******************************************************************************

                             A D F   E X I T
 NORMAL TERMINATION



 =================
 Timing Statistics
 =================
  
 Total Used :                     CPU=       42.50      System=        0.75     Elapsed=       44.56

 Calls  Section                     ( Mean, Percentage )
 ---------------------------------------------------------------------------------------------------
     3  ><      ................      0.00    0.01             0.00    0.00             0.00    0.01
     1  INIT    ................      0.56    1.33             0.02    2.22             0.59    1.31
     1  GEOMET  ................      0.04    0.08             0.01    1.76             0.05    0.11
     1  FRAGM   ................      0.02    0.06             0.01    1.13             0.03    0.07
     1  INPUTA  ................      0.00    0.01             0.00    0.00             0.00    0.01
     1  ATDEN   ................      0.00    0.01             0.00    0.00             0.00    0.01
     1  MAINSY  ................      0.03    0.08             0.01    1.03             0.04    0.09
     1  SYMFIT  ................      0.01    0.02             0.00    0.01             0.01    0.02
     1  CORORT  ................      0.00    0.00             0.00    0.02             0.00    0.00
     1  SYMORB  ................      0.00    0.01             0.00    0.00             0.00    0.01
     1  CLSMAT  ................      0.02    0.05             0.00    0.59             0.02    0.05
     1  ORTHON  ................      0.02    0.04             0.00    0.00             0.02    0.04
     1  GENPT   ................      0.13    0.31             0.00    0.04             0.13    0.30
     1  PTBAS   ................      0.08    0.20             0.01    1.86             0.10    0.22
    12  FOCKY   ................      0.29    8.30             0.00    7.45             0.31    8.35
    12  FOCKTR  ................      0.00    0.10             0.00    1.17             0.00    0.12
    12  SDIIS   ................      0.01    0.14             0.00    0.88             0.01    0.16
     1  COREPS  ................      0.21    0.50             0.00    0.48             0.23    0.52
     1  TOTEN   ................      0.96    2.25             0.02    2.10             1.03    2.32
     1  POPAN   ................      0.01    0.02             0.00    0.00             0.01    0.02
     1  DEBYE   ................      0.01    0.03             0.00    0.44             0.02    0.04
     1  INPUTE  ................      0.00    0.00             0.00    0.07             0.00    0.00
     1  SYMORE  ................      0.00    0.00             0.00    0.01             0.00    0.00
     1  METS    ................      0.00    0.00             0.00    0.01             0.00    0.00
     1  CETS    ................      0.01    0.01             0.00    0.59             0.01    0.02
     1  ELNRGY  ................      0.01    0.01             0.00    0.51             0.01    0.02
     1  POPUL   ................      0.01    0.03             0.00    0.00             0.02    0.03
     1  AORESPONSE .............     36.70   86.35             0.57   76.11            38.35   86.06
     1  EXIT PROCEDURE .........      0.02    0.04             0.01    1.54             0.03    0.07


 Currently Open Files (EXIT00)
 ====================

 Unit    Access Format  Status   Type       Ident (file)
 -------------------------------------------------------
   3      SEQ    FORM   TRANSP  NORMAL      LOGFILE
                                          ( logfile )

 ***************************************************************************************************
 (LOGFILE)
 <Sep29-2020> <15:13:06>  ADF 2019  RunTime: Sep29-2020 15:13:06  Nodes: 1  Procs: 1
 <Sep29-2020> <15:13:06>  Hydrogen (TZP)
 <Sep29-2020> <15:13:06>  RunType   : CREATE
 <Sep29-2020> <15:13:06>  Net Charge: 0 (Nuclei minus Electrons)
 <Sep29-2020> <15:13:06>  Symmetry  : ATOM
  Coordinates
    Atom         X           Y           Z   (Angstrom)
    1.H         0.000000    0.000000    0.000000
 <Sep29-2020> <15:13:06>  >>>> CORORT
 <Sep29-2020> <15:13:06>  >>>> CLSMAT
 <Sep29-2020> <15:13:06>  >>>> ORTHON
 <Sep29-2020> <15:13:06>  >>>> GENPT
 <Sep29-2020> <15:13:06>  Block Length=  64
 <Sep29-2020> <15:13:06>  >>>> PTBAS
 <Sep29-2020> <15:13:06>  >>>> CYCLE
 <Sep29-2020> <15:13:06>              |Error|         MaxErr       Wt(A-DIIS)
 <Sep29-2020> <15:13:06>      1      0.00000000      0.00000000
 <Sep29-2020> <15:13:06>      2      0.03052909      0.02968459
 <Sep29-2020> <15:13:06>      3      0.00718138      0.00670742    100.0
 <Sep29-2020> <15:13:06>      4      0.00117303      0.00114116      0.1
 <Sep29-2020> <15:13:06>      5      0.00002783      0.00002380      0.0
 <Sep29-2020> <15:13:06>      6      0.00000153      0.00000130      0.0
 <Sep29-2020> <15:13:06>      7      0.00000000      0.00000000      0.0
 <Sep29-2020> <15:13:06>  SCF converged
 <Sep29-2020> <15:13:06>      8      0.00000000      0.00000000      0.0
 <Sep29-2020> <15:13:06>  >>>> POPAN
 <Sep29-2020> <15:13:06>  >>>> DEBYE
 <Sep29-2020> <15:13:06>  NORMAL TERMINATION
 <Sep29-2020> <15:13:06>  END
 <Sep29-2020> <15:13:06>  ADF 2019  RunTime: Sep29-2020 15:13:06  Nodes: 1  Procs: 1
 <Sep29-2020> <15:13:06>  Carbon (TZP)
 <Sep29-2020> <15:13:06>  RunType   : CREATE
 <Sep29-2020> <15:13:06>  Net Charge: 0 (Nuclei minus Electrons)
 <Sep29-2020> <15:13:06>  Symmetry  : ATOM
  Coordinates
    Atom         X           Y           Z   (Angstrom)
    1.C         0.000000    0.000000    0.000000
 <Sep29-2020> <15:13:06>  >>>> CORORT
 <Sep29-2020> <15:13:06>  >>>> CLSMAT
 <Sep29-2020> <15:13:07>  >>>> ORTHON
 <Sep29-2020> <15:13:07>  >>>> GENPT
 <Sep29-2020> <15:13:07>  Block Length=  72
 <Sep29-2020> <15:13:07>  >>>> PTBAS
 <Sep29-2020> <15:13:07>  >>>> CYCLE
 <Sep29-2020> <15:13:07>              |Error|         MaxErr       Wt(A-DIIS)
 <Sep29-2020> <15:13:07>      1      0.00000000      0.00000000
 <Sep29-2020> <15:13:07>      2      4.48324754      3.31969244    100.0
 <Sep29-2020> <15:13:07>      3      1.61537707      1.30410194    100.0
 <Sep29-2020> <15:13:07>      4      0.72706284      0.59053131    100.0
 <Sep29-2020> <15:13:07>      5      0.40898688      0.33263800    100.0
 <Sep29-2020> <15:13:07>      6      0.13548919      0.10594416    100.0
 <Sep29-2020> <15:13:07>      7      0.11406432      0.09088019     90.8
 <Sep29-2020> <15:13:07>      8      0.01170325      0.00926551      8.3
 <Sep29-2020> <15:13:07>      9      0.00078015      0.00061791      0.0
 <Sep29-2020> <15:13:07>     10      0.00000178      0.00000107      0.0
 <Sep29-2020> <15:13:07>     11      0.00000024      0.00000019      0.0
 <Sep29-2020> <15:13:07>     12      0.00000000      0.00000000      0.0
 <Sep29-2020> <15:13:07>  SCF converged
 <Sep29-2020> <15:13:07>     13      0.00000000      0.00000000      0.0
 <Sep29-2020> <15:13:07>  >>>> POPAN
 <Sep29-2020> <15:13:07>  >>>> DEBYE
 <Sep29-2020> <15:13:07>  NORMAL TERMINATION
 <Sep29-2020> <15:13:07>  END
 <Sep29-2020> <15:13:07>  ADF 2019  RunTime: Sep29-2020 15:13:07  Nodes: 1  Procs: 6
 <Sep29-2020> <15:13:08>  None
 <Sep29-2020> <15:13:08>  RunType   : SINGLE POINT
 <Sep29-2020> <15:13:08>  Net Charge: 0 (Nuclei minus Electrons)
 <Sep29-2020> <15:13:08>  Symmetry  : NOSYM
 <Sep29-2020> <15:13:08>  >>>> FRAGM
  Coordinates
    Atom         X           Y           Z   (Angstrom)
    1.C         0.029266    4.000000   -1.398558
    2.C        -1.196619    4.000000   -0.724850
    3.C        -1.226366    4.000000    0.673234
    4.C        -0.030134    4.000000    1.398642
    5.C         1.197381    4.000000    0.725755
    6.C         1.227034    4.000000   -0.674166
    7.H        -2.130243    4.000000   -1.290108
    8.H        -2.183418    4.000000    1.198090
    9.H        -0.055853    4.000000    2.490095
   10.H         2.129957    4.000000    1.292892
   11.H         2.182888    4.000000   -1.201515
   12.H         0.050047    4.000000   -2.490111
 <Sep29-2020> <15:13:08>  >>>> CORORT
 <Sep29-2020> <15:13:08>  >>>> CLSMAT
 <Sep29-2020> <15:13:08>  >>>> ORTHON
 <Sep29-2020> <15:13:08>  >>>> GENPT
 <Sep29-2020> <15:13:08>  Block Length= 128
 <Sep29-2020> <15:13:08>  >>>> PTBAS
 <Sep29-2020> <15:13:08>  >>>> CYCLE
 <Sep29-2020> <15:13:09>              |Error|         MaxErr       Wt(A-DIIS)
 <Sep29-2020> <15:13:09>      1      5.99092529      0.98085694
 <Sep29-2020> <15:13:09>      2      0.89232749      0.18715260    100.0
 <Sep29-2020> <15:13:09>      3      0.52145202      0.10262377    100.0
 <Sep29-2020> <15:13:10>      4      0.74325186      0.17268774    100.0
 <Sep29-2020> <15:13:10>      5      0.07622624      0.01073612      9.8
 <Sep29-2020> <15:13:10>      6      0.01075404      0.00179971      0.8
 <Sep29-2020> <15:13:11>      7      0.00208221      0.00050940      0.0
 <Sep29-2020> <15:13:11>      8      0.00202774      0.00047798      0.0
 <Sep29-2020> <15:13:11>      9      0.00008607      0.00002455      0.0
 <Sep29-2020> <15:13:12>     10      0.00010327      0.00002678      0.0
 <Sep29-2020> <15:13:12>     11      0.00000130      0.00000033      0.0
 <Sep29-2020> <15:13:12>  SCF converged
 <Sep29-2020> <15:13:12>     12      0.00000009      0.00000002      0.0
 <Sep29-2020> <15:13:12>  >>>> TOTEN
 <Sep29-2020> <15:13:13>  >>>> POPAN
 <Sep29-2020> <15:13:13>  >>>> DEBYE
 <Sep29-2020> <15:13:14>  >>>> AMETS
 <Sep29-2020> <15:13:14>  >>>> POPUL
 <Sep29-2020> <15:13:14>     1 V(1)  0.1844039E+04
 <Sep29-2020> <15:13:14>     2 V(1)  0.1574261E+04
 <Sep29-2020> <15:13:15>     3 V(1)  0.1556958E+04
 <Sep29-2020> <15:13:15>     4 V(1)  0.1563512E+04
 <Sep29-2020> <15:13:15>     5 V(1)  0.1565466E+04
 <Sep29-2020> <15:13:16>     6 V(1)  0.1565360E+04
 <Sep29-2020> <15:13:16>     7 V(1)  0.1565298E+04
 <Sep29-2020> <15:13:17>     8 V(1)  0.1565288E+04
 <Sep29-2020> <15:13:17>     9 V(1)  0.1565285E+04
 <Sep29-2020> <15:13:17>    10 V(1)  0.1565283E+04
 <Sep29-2020> <15:13:18>    11 V(1)  0.1565283E+04
 <Sep29-2020> <15:13:18>   convergence reached
 <Sep29-2020> <15:13:18>     1 V(1)  0.2536226E+02
 <Sep29-2020> <15:13:19>     2 V(1)  0.2328898E+02
 <Sep29-2020> <15:13:19>     3 V(1)  0.2328364E+02
 <Sep29-2020> <15:13:19>     4 V(1)  0.2328289E+02
 <Sep29-2020> <15:13:20>     5 V(1)  0.2328277E+02
 <Sep29-2020> <15:13:20>     6 V(1)  0.2328280E+02
 <Sep29-2020> <15:13:20>   convergence reached
 <Sep29-2020> <15:13:21>     1 V(1)  0.1841838E+04
 <Sep29-2020> <15:13:21>     2 V(1)  0.1572273E+04
 <Sep29-2020> <15:13:21>     3 V(1)  0.1555020E+04
 <Sep29-2020> <15:13:22>     4 V(1)  0.1561561E+04
 <Sep29-2020> <15:13:22>     5 V(1)  0.1563515E+04
 <Sep29-2020> <15:13:23>     6 V(1)  0.1563412E+04
 <Sep29-2020> <15:13:23>     7 V(1)  0.1563348E+04
 <Sep29-2020> <15:13:23>     8 V(1)  0.1563338E+04
 <Sep29-2020> <15:13:24>     9 V(1)  0.1563334E+04
 <Sep29-2020> <15:13:24>    10 V(1)  0.1563332E+04
 <Sep29-2020> <15:13:25>    11 V(1)  0.1563332E+04
 <Sep29-2020> <15:13:25>   convergence reached
 <Sep29-2020> <15:13:25>     1 V(1)  0.1302783E+04
 <Sep29-2020> <15:13:25>     2 V(1)  0.1073686E+04
 <Sep29-2020> <15:13:26>     3 V(1)  0.1109112E+04
 <Sep29-2020> <15:13:26>     4 V(1)  0.1113589E+04
 <Sep29-2020> <15:13:27>     5 V(1)  0.1115356E+04
 <Sep29-2020> <15:13:27>     6 V(1)  0.1115824E+04
 <Sep29-2020> <15:13:28>     7 V(1)  0.1115893E+04
 <Sep29-2020> <15:13:28>     8 V(1)  0.1115896E+04
 <Sep29-2020> <15:13:29>     9 V(1)  0.1115893E+04
 <Sep29-2020> <15:13:29>    10 V(1)  0.1115892E+04
 <Sep29-2020> <15:13:30>    11 V(1)  0.1115892E+04
 <Sep29-2020> <15:13:30>   convergence reached
 <Sep29-2020> <15:13:30>     1 V(1)  0.1057873E+06
 <Sep29-2020> <15:13:31>     2 V(1)  0.8966154E+05
 <Sep29-2020> <15:13:31>     3 V(1)  0.8876605E+05
 <Sep29-2020> <15:13:32>     4 V(1)  0.8939228E+05
 <Sep29-2020> <15:13:32>     5 V(1)  0.8951106E+05
 <Sep29-2020> <15:13:33>     6 V(1)  0.8950380E+05
 <Sep29-2020> <15:13:33>     7 V(1)  0.8950017E+05
 <Sep29-2020> <15:13:33>     8 V(1)  0.8949959E+05
 <Sep29-2020> <15:13:34>     9 V(1)  0.8949933E+05
 <Sep29-2020> <15:13:34>    10 V(1)  0.8949921E+05
 <Sep29-2020> <15:13:35>    11 V(1)  0.8949922E+05
 <Sep29-2020> <15:13:35>   convergence reached
 <Sep29-2020> <15:13:35>     1 V(1)  0.6151754E+03
 <Sep29-2020> <15:13:36>     2 V(1)  0.4703214E+03
 <Sep29-2020> <15:13:36>     3 V(1)  0.4836686E+03
 <Sep29-2020> <15:13:36>     4 V(1)  0.4848276E+03
 <Sep29-2020> <15:13:37>     5 V(1)  0.4857027E+03
 <Sep29-2020> <15:13:37>     6 V(1)  0.4860393E+03
 <Sep29-2020> <15:13:38>     7 V(1)  0.4860695E+03
 <Sep29-2020> <15:13:38>     8 V(1)  0.4860735E+03
 <Sep29-2020> <15:13:38>     9 V(1)  0.4860723E+03
 <Sep29-2020> <15:13:39>    10 V(1)  0.4860714E+03
 <Sep29-2020> <15:13:39>    11 V(1)  0.4860709E+03
 <Sep29-2020> <15:13:39>   convergence reached
 <Sep29-2020> <15:13:40>     1 V(1)  0.2748731E+04
 <Sep29-2020> <15:13:40>     2 V(1)  0.2507390E+04
 <Sep29-2020> <15:13:40>     3 V(1)  0.2520122E+04
 <Sep29-2020> <15:13:41>     4 V(1)  0.2520484E+04
 <Sep29-2020> <15:13:41>     5 V(1)  0.2520554E+04
 <Sep29-2020> <15:13:42>     6 V(1)  0.2520553E+04
 <Sep29-2020> <15:13:42>   convergence reached
 <Sep29-2020> <15:13:42>     1 V(1)  0.1056614E+06
 <Sep29-2020> <15:13:43>     2 V(1)  0.8954835E+05
 <Sep29-2020> <15:13:43>     3 V(1)  0.8865557E+05
 <Sep29-2020> <15:13:44>     4 V(1)  0.8928091E+05
 <Sep29-2020> <15:13:44>     5 V(1)  0.8939960E+05
 <Sep29-2020> <15:13:45>     6 V(1)  0.8939253E+05
 <Sep29-2020> <15:13:45>     7 V(1)  0.8938878E+05
 <Sep29-2020> <15:13:46>     8 V(1)  0.8938817E+05
 <Sep29-2020> <15:13:46>     9 V(1)  0.8938790E+05
 <Sep29-2020> <15:13:46>    10 V(1)  0.8938778E+05
 <Sep29-2020> <15:13:47>    11 V(1)  0.8938778E+05
 <Sep29-2020> <15:13:47>   convergence reached
 <Sep29-2020> <15:13:47>     1 V(1)  0.1302437E+04
 <Sep29-2020> <15:13:48>     2 V(1)  0.1073508E+04
 <Sep29-2020> <15:13:48>     3 V(1)  0.1108974E+04
 <Sep29-2020> <15:13:49>     4 V(1)  0.1113624E+04
 <Sep29-2020> <15:13:49>     5 V(1)  0.1115168E+04
 <Sep29-2020> <15:13:50>     6 V(1)  0.1115641E+04
 <Sep29-2020> <15:13:50>     7 V(1)  0.1115703E+04
 <Sep29-2020> <15:13:51>     8 V(1)  0.1115706E+04
 <Sep29-2020> <15:13:51>     9 V(1)  0.1115703E+04
 <Sep29-2020> <15:13:51>    10 V(1)  0.1115701E+04
 <Sep29-2020> <15:13:52>    11 V(1)  0.1115702E+04
 <Sep29-2020> <15:13:52>   convergence reached
 <Sep29-2020> <15:13:52>  NORMAL TERMINATION
 <Sep29-2020> <15:13:52>  END
