

 Parallel Execution: Process Information
 ==============================================================================
 Rank   Node Name                              NodeID   MyNodeRank  NodeMaster
    0   magnesium.science.psu.edu                 0          0          0
    1   magnesium.science.psu.edu                 0          1         -1
    2   magnesium.science.psu.edu                 0          2         -1
    3   magnesium.science.psu.edu                 0          3         -1
    4   magnesium.science.psu.edu                 0          4         -1
    5   magnesium.science.psu.edu                 0          5         -1
 ==============================================================================


May use up to 7495MB of RAM as shared memory on node 0
 
TITLE None

ATOMS
1  C     0.02972647    4.00000000   -1.40049529
2  C    -1.19584059    4.00000000   -0.72543235
3  C    -1.22550883    4.00000000    0.67384294
4  C    -0.02972647    4.00000000    1.40049529
5  C     1.19584059    4.00000000    0.72543235
6  C     1.22550883    4.00000000   -0.67384294
7  H    -2.12986177    4.00000000   -1.29011295
8  H    -2.18275059    4.00000000    1.19841824
9  H    -0.05305824    4.00000000    2.49199529
10 H     2.12986177    4.00000000    1.29011295
11 H     2.18285059    4.00000000   -1.19841824
12 H     0.05295824    4.00000000   -2.49199529
END

XC
 gga BP86
end

symmetry nosym

aoresponse
 alda
 frequency 1 3.6 eV
 lifetime 0.0037
 El_Dipole_El_Dipole
 El_Dipole_El_Quadrupole
 El_Quadrupole_El_Quadrupole
 Traceless
end

Fragments
H t21.H
C t21.C
End

 *******************************************************************************
 *                                                                             *
 *  -------------------------------------                                      *
 *   Amsterdam Density Functional  (ADF)         2019                          *
 *  -------------------------------------                                      *
 *                                               r75281 2019-06-03             *
 *                                                                             *
 *                                                                             *
 *                              =================                              *
 *                              |               |                              *
 *                              |     A D F     |                              *
 *                              |               |                              *
 *                              =================                              *
 *                                                                             *
 *                                                                             *
 *   Online information and documentation:  https://www.scm.com/support/       *
 *   E-mail:  support@scm.com   info@scm.com                                   *
 *                                                                             *
 *   Scientific publications using ADF results must be properly referenced     *
 *   See the User Manuals (or the web site) for recommended citations          *
 *   The terms and conditions of the End User License Agreement apply to       *
 *   the use of ADF, https://www.scm.com/license-terms/                        *
 *                                                                             *
 **********************  x86_64_linux_intel / intelmpi  ************************
 
 Licensed to: Prof. Lasse Jensen / Penn State University / University Park / PA  / USA
 SCM User ID: u8493
  
 ADF 2019  RunTime: Sep29-2020 15:27:26  Nodes: 1  Procs: 6

 Temporary files are created in /scratch/kid_0.203215083


Communication costs MPI_COMM_WORLD:      0.598 usec per message,   0.0071 usec per 8-byte item
Communication costs for intra-node:      0.600 usec per message,   0.0073 usec per 8-byte item

 None



 ===========================
 A T T A C H E D   F I L E S
 ===========================
  



 ===============================
 M O D E L   P A R A M E T E R S
 ===============================
  
 DENSITY FUNCTIONAL POTENTIAL (scf)
    LDA:                               VWN                                      
    Gradient Corrections:              Becke88 Perdew86                        == Not Default ==

 SPIN  (restricted / unrestr.)
    Molecule:                          Restricted                               
    Fragments:                         Restricted                               

 OTHER ASPECTS
    Relativistic Corrections:          ---                                      

    Nuclear Charge Density Model:      Point Charge Nuclei                      
    Core Treatment:                    Frozen Orbital(s)                        

    Hyperfine or Zeeman Interaction:   ---                                      


 Fragment File(s)
 ----------------
 C:
         file : t21.C
         jobid: ADF 2019  RunTime: Sep29-2020 15:27:25  Nodes: 1  Procs: 1
         title: Carbon (TZP)
 H:
         file : t21.H
         jobid: ADF 2019  RunTime: Sep29-2020 15:27:24  Nodes: 1  Procs: 1
         title: Hydrogen (TZP)



                                        ************************************
                                        *  R U N   T Y P E : SINGLE POINT  *
                                        ************************************
  



 ===============
 G E O M E T R Y  ***  Planar Molecule  ***
 ===============
  

 ATOMS
 =====                            X Y Z                    CHARGE
                                (Angstrom)             Nucl     +Core       At.Mass
                       --------------------------    ----------------       -------
    1  C               0.0297    4.0000   -1.4005      6.00      6.00       12.0000
    2  C              -1.1958    4.0000   -0.7254      6.00      6.00       12.0000
    3  C              -1.2255    4.0000    0.6738      6.00      6.00       12.0000
    4  C              -0.0297    4.0000    1.4005      6.00      6.00       12.0000
    5  C               1.1958    4.0000    0.7254      6.00      6.00       12.0000
    6  C               1.2255    4.0000   -0.6738      6.00      6.00       12.0000
    7  H              -2.1299    4.0000   -1.2901      1.00      1.00        1.0078
    8  H              -2.1828    4.0000    1.1984      1.00      1.00        1.0078
    9  H              -0.0531    4.0000    2.4920      1.00      1.00        1.0078
   10  H               2.1299    4.0000    1.2901      1.00      1.00        1.0078
   11  H               2.1829    4.0000   -1.1984      1.00      1.00        1.0078
   12  H               0.0530    4.0000   -2.4920      1.00      1.00        1.0078


 FRAGMENTS
 =========                                     Atoms in this Fragment     Cart. coord.s (Angstrom)
                                               -------------------------------------------------------
    1  C                                                 1  C            0.0297    4.0000   -1.4005
    2  C                                                 2  C           -1.1958    4.0000   -0.7254
    3  C                                                 3  C           -1.2255    4.0000    0.6738
    4  C                                                 4  C           -0.0297    4.0000    1.4005
    5  C                                                 5  C            1.1958    4.0000    0.7254
    6  C                                                 6  C            1.2255    4.0000   -0.6738
    7  H                                                 7  H           -2.1299    4.0000   -1.2901
    8  H                                                 8  H           -2.1828    4.0000    1.1984
    9  H                                                 9  H           -0.0531    4.0000    2.4920
   10  H                                                10  H            2.1299    4.0000    1.2901
   11  H                                                11  H            2.1829    4.0000   -1.1984
   12  H                                                12  H            0.0530    4.0000   -2.4920


 Interatomic Distance Matrix (Angstrom)
 --------------------------------------

   1)     0.000
   2)     1.399   0.000
   3)     2.425   1.400   0.000
   4)     2.802   2.425   1.399   0.000
   5)     2.425   2.797   2.422   1.399   0.000
   6)     1.399   2.422   2.797   2.425   1.400   0.000
   7)     2.162   1.091   2.162   3.413   3.889   3.411   0.000
   8)     3.413   2.162   1.092   2.162   3.412   3.889   2.489   0.000
   9)     3.893   3.414   2.163   1.092   2.163   3.414   4.315   2.492   0.000
  10)     3.413   3.889   3.411   2.162   1.091   2.162   4.980   4.314   2.492   0.000
  11)     2.163   3.412   3.889   3.413   2.162   1.092   4.314   4.980   4.315   2.489
          0.000
  12)     1.092   2.163   3.414   3.893   3.414   2.163   2.492   4.315   4.985   4.315
          2.492   0.000

 Min. Distance =    1.0914
 Max. Distance =    4.9851



 =====================================
 S Y M M E T R Y ,   E L E C T R O N S
 =====================================
  
 Symmetry: NOSYM

 Irreducible Representations, including subspecies
 -------------------------------------------------
 A


 Configuration of Valence Electrons
 ==================================
 ( determined in the SCF procedure )

 Total:   42

 Net Charge: 0 (Nuclei minus Electrons)

 Aufbau principle for MO occupations will be applied through SCF cycle no.     150
 Thereafter, the program will assign electrons to MOs that are spatially
 similar to the occupied MOs in a "reference" cycle ("KeepOrbitals").
 The reference cycle is always the PREVIOUS cycle: it will evolve with
 the SCF procedure.
1
 ***************************************************************************************************



                                      ****************************************
                                      *  B U I L D : (Fragments, Functions)  *
                                      ****************************************
  



 =======
 S F O s  ***  (Symmetrized Fragment Orbitals)  ***
 =======
  
 SFOs are linear combinations of (valence) Fragment Orbitals (FOs), such that the SFOs transform as the
 irreducible representations of the (molecular) symmetry group. Each SFO is therefore characterized by
 an irrep of the molecule and by a few (or only one) generating FOs.
 The SFOs constitute a symmetry-adapted basis for the Fock matrix. The MO eigenvector coefficients in
 this basis provide a direct interpretation of the MOs in terms of Frontier Orbital Theory.

 The SFOs are combined with auxiliary Core Functions (CFs) to ensure orthogonalization on the (frozen)
 Core Orbitals (COs). The Core-orthogonalized SFOs (CSFOs) constitute the true Fock basis.

 The FOs, and hence also the (C)SFOs are combinations of the elementary basis functions (BAS). The basis
 functions that participate in the description of the SFOs depend on the irrep. The indices of the
 involved functions are printed below for each irrep.
 (The complete list of primitive basis functions is printed in another section)

 Total nr. of (C)SFOs (summation over all irreps) :   150

 NOTE: a (C)SFO that is defined as a combination of more than one FO is usually NOT normalized.



                                       === A ===
 Nr. of SFOs :  150
 Cartesian basis functions that participate in this irrep (total number =   156) :
      1     2     3     4     5     6     9    12     7    10
     13     8    11    14    15    16    17    18    19    20
     21    22    23    24    25    26    29    32    27    30
     33    28    31    34    35    36    37    38    39    40
     41    42    43    44    45    46    49    52    47    50
     53    48    51    54    55    56    57    58    59    60
     61    62    63    64    65    66    69    72    67    70
     73    68    71    74    75    76    77    78    79    80
     81    82    83    84    85    86    89    92    87    90
     93    88    91    94    95    96    97    98    99   100
    101   102   103   104   105   106   109   112   107   110
    113   108   111   114   115   116   117   118   119   120
    121   122   123   124   125   126   127   128   129   130
    131   132   133   134   135   136   137   138   139   140
    141   142   143   144   145   146   147   148   149   150
    151   152   153   154   155   156

    SFO  (index         Fragment          Generating    Expansion in Fragment Orbitals
  indx  incl.CFs)   Occup   Orb.Energy   FragmentType  Coeff.   Orbital     on Fragment
 --------------------------------------------------------------------------------------
     1       1      2.000     -10.058 au  C             1.00      1 S               1
                        (    -273.681 eV)
     2       2      2.000      -0.510 au  C             1.00      2 S               1
                        (     -13.876 eV)
     3       3       --         0.371 au  C             1.00      3 S               1
                        (      10.091 eV)
     4       4       --         5.428 au  C             1.00      4 S               1
                        (     147.707 eV)
     5       5       --        50.181 au  C             1.00      5 S               1
                        (    1365.486 eV)
     6       6      0.667      -0.199 au  C             1.00      1 P:x             1
                        (      -5.403 eV)
     7       7       --         0.173 au  C             1.00      2 P:x             1
                        (       4.709 eV)
     8       8       --         2.026 au  C             1.00      3 P:x             1
                        (      55.143 eV)
     9       9      0.667      -0.199 au  C             1.00      1 P:y             1
                        (      -5.403 eV)
    10      10       --         0.173 au  C             1.00      2 P:y             1
                        (       4.709 eV)
    11      11       --         2.026 au  C             1.00      3 P:y             1
                        (      55.143 eV)
    12      12      0.667      -0.199 au  C             1.00      1 P:z             1
                        (      -5.403 eV)
    13      13       --         0.173 au  C             1.00      2 P:z             1
                        (       4.709 eV)
    14      14       --         2.026 au  C             1.00      3 P:z             1
                        (      55.143 eV)
    15      15       --         1.232 au  C             1.00      1 D:z2            1
                        (      33.528 eV)
    16      16       --         1.232 au  C             1.00      1 D:x2-y2         1
                        (      33.528 eV)
    17      17       --         1.232 au  C             1.00      1 D:xy            1
                        (      33.528 eV)
    18      18       --         1.232 au  C             1.00      1 D:xz            1
                        (      33.528 eV)
    19      19       --         1.232 au  C             1.00      1 D:yz            1
                        (      33.528 eV)
    20      20      2.000     -10.058 au  C             1.00      1 S               2
                        (    -273.681 eV)
    21      21      2.000      -0.510 au  C             1.00      2 S               2
                        (     -13.876 eV)
    22      22       --         0.371 au  C             1.00      3 S               2
                        (      10.091 eV)
    23      23       --         5.428 au  C             1.00      4 S               2
                        (     147.707 eV)
    24      24       --        50.181 au  C             1.00      5 S               2
                        (    1365.486 eV)
    25      25      0.667      -0.199 au  C             1.00      1 P:x             2
                        (      -5.403 eV)
    26      26       --         0.173 au  C             1.00      2 P:x             2
                        (       4.709 eV)
    27      27       --         2.026 au  C             1.00      3 P:x             2
                        (      55.143 eV)
    28      28      0.667      -0.199 au  C             1.00      1 P:y             2
                        (      -5.403 eV)
    29      29       --         0.173 au  C             1.00      2 P:y             2
                        (       4.709 eV)
    30      30       --         2.026 au  C             1.00      3 P:y             2
                        (      55.143 eV)
    31      31      0.667      -0.199 au  C             1.00      1 P:z             2
                        (      -5.403 eV)
    32      32       --         0.173 au  C             1.00      2 P:z             2
                        (       4.709 eV)
    33      33       --         2.026 au  C             1.00      3 P:z             2
                        (      55.143 eV)
    34      34       --         1.232 au  C             1.00      1 D:z2            2
                        (      33.528 eV)
    35      35       --         1.232 au  C             1.00      1 D:x2-y2         2
                        (      33.528 eV)
    36      36       --         1.232 au  C             1.00      1 D:xy            2
                        (      33.528 eV)
    37      37       --         1.232 au  C             1.00      1 D:xz            2
                        (      33.528 eV)
    38      38       --         1.232 au  C             1.00      1 D:yz            2
                        (      33.528 eV)
    39      39      2.000     -10.058 au  C             1.00      1 S               3
                        (    -273.681 eV)
    40      40      2.000      -0.510 au  C             1.00      2 S               3
                        (     -13.876 eV)
    41      41       --         0.371 au  C             1.00      3 S               3
                        (      10.091 eV)
    42      42       --         5.428 au  C             1.00      4 S               3
                        (     147.707 eV)
    43      43       --        50.181 au  C             1.00      5 S               3
                        (    1365.486 eV)
    44      44      0.667      -0.199 au  C             1.00      1 P:x             3
                        (      -5.403 eV)
    45      45       --         0.173 au  C             1.00      2 P:x             3
                        (       4.709 eV)
    46      46       --         2.026 au  C             1.00      3 P:x             3
                        (      55.143 eV)
    47      47      0.667      -0.199 au  C             1.00      1 P:y             3
                        (      -5.403 eV)
    48      48       --         0.173 au  C             1.00      2 P:y             3
                        (       4.709 eV)
    49      49       --         2.026 au  C             1.00      3 P:y             3
                        (      55.143 eV)
    50      50      0.667      -0.199 au  C             1.00      1 P:z             3
                        (      -5.403 eV)
    51      51       --         0.173 au  C             1.00      2 P:z             3
                        (       4.709 eV)
    52      52       --         2.026 au  C             1.00      3 P:z             3
                        (      55.143 eV)
    53      53       --         1.232 au  C             1.00      1 D:z2            3
                        (      33.528 eV)
    54      54       --         1.232 au  C             1.00      1 D:x2-y2         3
                        (      33.528 eV)
    55      55       --         1.232 au  C             1.00      1 D:xy            3
                        (      33.528 eV)
    56      56       --         1.232 au  C             1.00      1 D:xz            3
                        (      33.528 eV)
    57      57       --         1.232 au  C             1.00      1 D:yz            3
                        (      33.528 eV)
    58      58      2.000     -10.058 au  C             1.00      1 S               4
                        (    -273.681 eV)
    59      59      2.000      -0.510 au  C             1.00      2 S               4
                        (     -13.876 eV)
    60      60       --         0.371 au  C             1.00      3 S               4
                        (      10.091 eV)
    61      61       --         5.428 au  C             1.00      4 S               4
                        (     147.707 eV)
    62      62       --        50.181 au  C             1.00      5 S               4
                        (    1365.486 eV)
    63      63      0.667      -0.199 au  C             1.00      1 P:x             4
                        (      -5.403 eV)
    64      64       --         0.173 au  C             1.00      2 P:x             4
                        (       4.709 eV)
    65      65       --         2.026 au  C             1.00      3 P:x             4
                        (      55.143 eV)
    66      66      0.667      -0.199 au  C             1.00      1 P:y             4
                        (      -5.403 eV)
    67      67       --         0.173 au  C             1.00      2 P:y             4
                        (       4.709 eV)
    68      68       --         2.026 au  C             1.00      3 P:y             4
                        (      55.143 eV)
    69      69      0.667      -0.199 au  C             1.00      1 P:z             4
                        (      -5.403 eV)
    70      70       --         0.173 au  C             1.00      2 P:z             4
                        (       4.709 eV)
    71      71       --         2.026 au  C             1.00      3 P:z             4
                        (      55.143 eV)
    72      72       --         1.232 au  C             1.00      1 D:z2            4
                        (      33.528 eV)
    73      73       --         1.232 au  C             1.00      1 D:x2-y2         4
                        (      33.528 eV)
    74      74       --         1.232 au  C             1.00      1 D:xy            4
                        (      33.528 eV)
    75      75       --         1.232 au  C             1.00      1 D:xz            4
                        (      33.528 eV)
    76      76       --         1.232 au  C             1.00      1 D:yz            4
                        (      33.528 eV)
    77      77      2.000     -10.058 au  C             1.00      1 S               5
                        (    -273.681 eV)
    78      78      2.000      -0.510 au  C             1.00      2 S               5
                        (     -13.876 eV)
    79      79       --         0.371 au  C             1.00      3 S               5
                        (      10.091 eV)
    80      80       --         5.428 au  C             1.00      4 S               5
                        (     147.707 eV)
    81      81       --        50.181 au  C             1.00      5 S               5
                        (    1365.486 eV)
    82      82      0.667      -0.199 au  C             1.00      1 P:x             5
                        (      -5.403 eV)
    83      83       --         0.173 au  C             1.00      2 P:x             5
                        (       4.709 eV)
    84      84       --         2.026 au  C             1.00      3 P:x             5
                        (      55.143 eV)
    85      85      0.667      -0.199 au  C             1.00      1 P:y             5
                        (      -5.403 eV)
    86      86       --         0.173 au  C             1.00      2 P:y             5
                        (       4.709 eV)
    87      87       --         2.026 au  C             1.00      3 P:y             5
                        (      55.143 eV)
    88      88      0.667      -0.199 au  C             1.00      1 P:z             5
                        (      -5.403 eV)
    89      89       --         0.173 au  C             1.00      2 P:z             5
                        (       4.709 eV)
    90      90       --         2.026 au  C             1.00      3 P:z             5
                        (      55.143 eV)
    91      91       --         1.232 au  C             1.00      1 D:z2            5
                        (      33.528 eV)
    92      92       --         1.232 au  C             1.00      1 D:x2-y2         5
                        (      33.528 eV)
    93      93       --         1.232 au  C             1.00      1 D:xy            5
                        (      33.528 eV)
    94      94       --         1.232 au  C             1.00      1 D:xz            5
                        (      33.528 eV)
    95      95       --         1.232 au  C             1.00      1 D:yz            5
                        (      33.528 eV)
    96      96      2.000     -10.058 au  C             1.00      1 S               6
                        (    -273.681 eV)
    97      97      2.000      -0.510 au  C             1.00      2 S               6
                        (     -13.876 eV)
    98      98       --         0.371 au  C             1.00      3 S               6
                        (      10.091 eV)
    99      99       --         5.428 au  C             1.00      4 S               6
                        (     147.707 eV)
   100     100       --        50.181 au  C             1.00      5 S               6
                        (    1365.486 eV)
   101     101      0.667      -0.199 au  C             1.00      1 P:x             6
                        (      -5.403 eV)
   102     102       --         0.173 au  C             1.00      2 P:x             6
                        (       4.709 eV)
   103     103       --         2.026 au  C             1.00      3 P:x             6
                        (      55.143 eV)
   104     104      0.667      -0.199 au  C             1.00      1 P:y             6
                        (      -5.403 eV)
   105     105       --         0.173 au  C             1.00      2 P:y             6
                        (       4.709 eV)
   106     106       --         2.026 au  C             1.00      3 P:y             6
                        (      55.143 eV)
   107     107      0.667      -0.199 au  C             1.00      1 P:z             6
                        (      -5.403 eV)
   108     108       --         0.173 au  C             1.00      2 P:z             6
                        (       4.709 eV)
   109     109       --         2.026 au  C             1.00      3 P:z             6
                        (      55.143 eV)
   110     110       --         1.232 au  C             1.00      1 D:z2            6
                        (      33.528 eV)
   111     111       --         1.232 au  C             1.00      1 D:x2-y2         6
                        (      33.528 eV)
   112     112       --         1.232 au  C             1.00      1 D:xy            6
                        (      33.528 eV)
   113     113       --         1.232 au  C             1.00      1 D:xz            6
                        (      33.528 eV)
   114     114       --         1.232 au  C             1.00      1 D:yz            6
                        (      33.528 eV)
   115     115      1.000      -0.244 au  H             1.00      1 S               7
                        (      -6.626 eV)
   116     116       --         0.093 au  H             1.00      2 S               7
                        (       2.536 eV)
   117     117       --         1.515 au  H             1.00      3 S               7
                        (      41.236 eV)
   118     118       --         0.400 au  H             1.00      1 P:x             7
                        (      10.872 eV)
   119     119       --         0.400 au  H             1.00      1 P:y             7
                        (      10.872 eV)
   120     120       --         0.400 au  H             1.00      1 P:z             7
                        (      10.872 eV)
   121     121      1.000      -0.244 au  H             1.00      1 S               8
                        (      -6.626 eV)
   122     122       --         0.093 au  H             1.00      2 S               8
                        (       2.536 eV)
   123     123       --         1.515 au  H             1.00      3 S               8
                        (      41.236 eV)
   124     124       --         0.400 au  H             1.00      1 P:x             8
                        (      10.872 eV)
   125     125       --         0.400 au  H             1.00      1 P:y             8
                        (      10.872 eV)
   126     126       --         0.400 au  H             1.00      1 P:z             8
                        (      10.872 eV)
   127     127      1.000      -0.244 au  H             1.00      1 S               9
                        (      -6.626 eV)
   128     128       --         0.093 au  H             1.00      2 S               9
                        (       2.536 eV)
   129     129       --         1.515 au  H             1.00      3 S               9
                        (      41.236 eV)
   130     130       --         0.400 au  H             1.00      1 P:x             9
                        (      10.872 eV)
   131     131       --         0.400 au  H             1.00      1 P:y             9
                        (      10.872 eV)
   132     132       --         0.400 au  H             1.00      1 P:z             9
                        (      10.872 eV)
   133     133      1.000      -0.244 au  H             1.00      1 S              10
                        (      -6.626 eV)
   134     134       --         0.093 au  H             1.00      2 S              10
                        (       2.536 eV)
   135     135       --         1.515 au  H             1.00      3 S              10
                        (      41.236 eV)
   136     136       --         0.400 au  H             1.00      1 P:x            10
                        (      10.872 eV)
   137     137       --         0.400 au  H             1.00      1 P:y            10
                        (      10.872 eV)
   138     138       --         0.400 au  H             1.00      1 P:z            10
                        (      10.872 eV)
   139     139      1.000      -0.244 au  H             1.00      1 S              11
                        (      -6.626 eV)
   140     140       --         0.093 au  H             1.00      2 S              11
                        (       2.536 eV)
   141     141       --         1.515 au  H             1.00      3 S              11
                        (      41.236 eV)
   142     142       --         0.400 au  H             1.00      1 P:x            11
                        (      10.872 eV)
   143     143       --         0.400 au  H             1.00      1 P:y            11
                        (      10.872 eV)
   144     144       --         0.400 au  H             1.00      1 P:z            11
                        (      10.872 eV)
   145     145      1.000      -0.244 au  H             1.00      1 S              12
                        (      -6.626 eV)
   146     146       --         0.093 au  H             1.00      2 S              12
                        (       2.536 eV)
   147     147       --         1.515 au  H             1.00      3 S              12
                        (      41.236 eV)
   148     148       --         0.400 au  H             1.00      1 P:x            12
                        (      10.872 eV)
   149     149       --         0.400 au  H             1.00      1 P:y            12
                        (      10.872 eV)
   150     150       --         0.400 au  H             1.00      1 P:z            12
                        (      10.872 eV)



 ================================
 (Slater-type)  F U N C T I O N S  ***  (Basis and Fit)  ***
 ================================
  

 Atom Type    1  (C)
 ==============

 Valence Basis Sets:   9
 -----------------------
   1 S    7.680000
   1 S    5.000000
   2 S    1.280000
   2 S    2.100000
   2 S    4.600000
   2 P    0.820000
   2 P    1.480000
   2 P    2.940000
   3 D    2.200000

 Atom Type    2  (H)
 ==============

 Valence Basis Sets:   4
 -----------------------
   1 S    0.690000
   1 S    0.920000
   1 S    1.580000
   2 P    1.250000


 BAS: List of all Elementary Cartesian Basis Functions
 =====================================================

 The numbering in the list below (to the right of the function characteristics) is referred
 to in print-outs of MO eigenvectors and Mulliken populations in the BAS representation
 (as contrasted to the SFO representation).

 Notes:
 1. The functions are characterized by a polynomial prefactor (powers of x,y,z and r) and
    an exponential decay factor alpha.
 2. Since the basis sets are specific for an atom TYPE, the individual functions occur on
    all atoms of that type.
 3. The word 'Core' in the left margin signals that it is a Core Function (CF) : not a
    degree of freedom in the valence set, but only used to ensure orthogonalization of
    the other valence basis functions on the frozen Core Orbitals.


 (power of) X  Y  Z  R     Alpha  on Atom
            ==========     =====     ==========

 C                                    1    2    3    4    5    6
                                  ---------------------------------------------------------------------------
            0  0  0  0     7.680      1   21   41   61   81  101
            0  0  0  0     5.000      2   22   42   62   82  102
            0  0  0  1     1.280      3   23   43   63   83  103
            0  0  0  1     2.100      4   24   44   64   84  104
            0  0  0  1     4.600      5   25   45   65   85  105
            1  0  0  0     0.820      6   26   46   66   86  106
            0  1  0  0     0.820      7   27   47   67   87  107
            0  0  1  0     0.820      8   28   48   68   88  108
            1  0  0  0     1.480      9   29   49   69   89  109
            0  1  0  0     1.480     10   30   50   70   90  110
            0  0  1  0     1.480     11   31   51   71   91  111
            1  0  0  0     2.940     12   32   52   72   92  112
            0  1  0  0     2.940     13   33   53   73   93  113
            0  0  1  0     2.940     14   34   54   74   94  114
            2  0  0  0     2.200     15   35   55   75   95  115
            1  1  0  0     2.200     16   36   56   76   96  116
            1  0  1  0     2.200     17   37   57   77   97  117
            0  2  0  0     2.200     18   38   58   78   98  118
            0  1  1  0     2.200     19   39   59   79   99  119
            0  0  2  0     2.200     20   40   60   80  100  120

 H                                    7    8    9   10   11   12
                                  ---------------------------------------------------------------------------
            0  0  0  0     0.690    121  127  133  139  145  151
            0  0  0  0     0.920    122  128  134  140  146  152
            0  0  0  0     1.580    123  129  135  141  147  153
            1  0  0  0     1.250    124  130  136  142  148  154
            0  1  0  0     1.250    125  131  137  143  149  155
            0  0  1  0     1.250    126  132  138  144  150  156

 Total number of charge fitting functions (nprimf)       804
 Total number of Cartesian basis functions (naos)        156
 Total number of Cartesian core functions  (ncos)          0

1
 ***************************************************************************************************



                                              ***********************
                                              *  T E C H N I C A L  *
                                              ***********************
  



 =============================================================
 P A R A L L E L I Z A T I O N  and  V E C T O R I Z A T I O N
 =============================================================
  
 Nr of parallel processes:                                6
 Maximum vector length in NumInt loops:                 128



 =====================
 S C F   U P D A T E S
 =====================
  
 Max. nr. of cycles:                               300
 Convergence criterion:                              0.0000010000
   secondary criterion:                              0.0010000000

 Mix parameter (when DIIS does not apply):           0.2000000000
 Mixed ADIIS+SDIIS will be used                  
    Max number of expansion vectors:                10
    Pure ADIIS when Max([F,P]) is above              0.1000000000
    Pure SDIIS when Max([F,P]) is below              0.0010000000
 Automatic ElectronSmearing (in case of problematic SCF convergence) disabled



 =================
 P R E C I S I O N  ***  (General: NumInt, NeglectFunctionTails, ...)  ***
 =================
  

 NumInt:           Target precision:                 4.0000000000
 -------           Initial precision:                4.0000000000
                   Min. precision (optimization):    4.0000000000

 Neglect Functions:          Basis functions:        0.1000000000E-13
 ------------------          Fit functions:          0.1000000000E-13



 ===========================
 L I N E A R   S C A L I N G
 ===========================
  

 Cut-off radii density fit:                        0.1000000000E-07
 Overlap cut-off criterion AO matrix elements:     0.1000000000E-05
 Cut-offs for Coulomb potential and fitted density:0.1000000000E-07
 Cut-off criterion for Coulomb multipole terms:    0.1000000000E-07
 Progressive Convergence parameter:                 0.000000000    
1
 ***************************************************************************************************



                                            ***************************
                                            *  C O M P U T A T I O N  *
                                            ***************************
  

 Number of elements of the density matrix on this node (used, total):      1962     12246



 ===========================================
 Numerical Integration : Fuzzy Cells (Becke)
 ===========================================
  
 Becke grid quality: NORMAL         
  
 Lebedev angular grid order:             min:  11 max:  23
 Nr. of radial points:                   min:  46 max:  52

 Total nr. of points:      75660
 Nr. of blocks:              592
 Block length:               128
 Nr. of dummy points:        116


 Test of Precision of the Numerical Integration Grid
 ===================================================

 Integral of the Total Core Density:                   0.00000000000000



 ========================
 Density Fitting (zlmFit)
 ========================
  
 ZlmFit Fit Quality: NORMAL         
  
 Max L-expansion:                        min:   5 max:   6
 Nr. of radial interpolation points:     min:  36 max:  48



 =====
 S C F  ***  ScaSCF  ***
 =====
  
 Initial density matrix is calculated as sum of fragments

 CYCLE    1
 SCF Error: norm([F,P])=      5.990934404343, max([F,P])=      0.980326551924
 orbitals (Q,E):
 ---------------
 A :12...31          ( 2.00    -0.6583)  ( 2.00    -0.6250)  ( 2.00    -0.5883)  ( 2.00    -0.5692)
                     ( 2.00    -0.5688)  ( 2.00    -0.5031)  ( 2.00    -0.5017)  ( 2.00    -0.5014)
                     ( 2.00    -0.4056)  ( 2.00    -0.4054)  ( 0.00    -0.2151)  ( 0.00    -0.2150)
                     ( 0.00    -0.0768)  ( 0.00    -0.0731)  ( 0.00    -0.0375)  ( 0.00    -0.0375)
                     ( 0.00    -0.0112)  ( 0.00    -0.0110)  ( 0.00     0.0270)  ( 0.00     0.0510)

 CYCLE    2
   MIX coefficients:  0.8000  0.2000
 SCF Error: norm([F,P])=      0.892311958862, max([F,P])=      0.186997943721
 orbitals (Q,E):
 ---------------
 A :12...22          ( 2.00    -0.5946)  ( 2.00    -0.5420)  ( 2.00    -0.5328)  ( 2.00    -0.5024)
                     ( 2.00    -0.5019)  ( 2.00    -0.4366)  ( 2.00    -0.4345)  ( 2.00    -0.4342)
                     ( 2.00    -0.3390)  ( 2.00    -0.3387)  ( 0.00    -0.1501)

 CYCLE    3
  SDIIS (wt  0.000): -1.2669  2.2669
 A-DIIS (wt  1.000):  0.0000  1.0000
  DIIS coefficients:  0.0000  1.0000
 SCF Error: norm([F,P])=      0.521447207528, max([F,P])=      0.102611510597
 orbitals (Q,E):
 ---------------
 A :12...22          ( 2.00    -0.3985)  ( 2.00    -0.3563)  ( 2.00    -0.2968)  ( 2.00    -0.2962)
                     ( 2.00    -0.2951)  ( 2.00    -0.2475)  ( 2.00    -0.2229)  ( 2.00    -0.2225)
                     ( 2.00    -0.1499)  ( 2.00    -0.1497)  ( 0.00     0.0285)

 CYCLE    4
  SDIIS (wt  0.000):  0.1837  0.3520  0.4642
 A-DIIS (wt  1.000):  0.0000  0.6402  0.3598
  DIIS coefficients:  0.0000  0.6402  0.3598
 SCF Error: norm([F,P])=      0.743237795547, max([F,P])=      0.172485322256
 orbitals (Q,E):
 ---------------
 A :12...22          ( 2.00    -0.4673)  ( 2.00    -0.4037)  ( 2.00    -0.3933)  ( 2.00    -0.3710)
                     ( 2.00    -0.3705)  ( 2.00    -0.3293)  ( 2.00    -0.2972)  ( 2.00    -0.2968)
                     ( 2.00    -0.2287)  ( 2.00    -0.2285)  ( 0.00    -0.0404)

 CYCLE    5
  SDIIS (wt  0.901): -0.0172  0.2159  0.0733  0.7280
 A-DIIS (wt  0.099):  0.0000  0.0000  0.0000  1.0000
  DIIS coefficients: -0.0155  0.1946  0.0660  0.7549
 SCF Error: norm([F,P])=      0.076222063820, max([F,P])=      0.010798977246
 orbitals (Q,E):
 ---------------
 A :12...22          ( 2.00    -0.4793)  ( 2.00    -0.4187)  ( 2.00    -0.4084)  ( 2.00    -0.3829)
                     ( 2.00    -0.3824)  ( 2.00    -0.3380)  ( 2.00    -0.3111)  ( 2.00    -0.3108)
                     ( 2.00    -0.2385)  ( 2.00    -0.2382)  ( 0.00    -0.0510)

 CYCLE    6
  SDIIS (wt  0.993): -0.0029  0.0316  0.0083  0.1928  0.7703
 A-DIIS (wt  0.007):  0.0000  0.0000  0.0000  0.0000  1.0000
  DIIS coefficients: -0.0029  0.0313  0.0082  0.1914  0.7719
 SCF Error: norm([F,P])=      0.010740514260, max([F,P])=      0.001722499076
 orbitals (Q,E):
 ---------------
 A :12...22          ( 2.00    -0.4790)  ( 2.00    -0.4180)  ( 2.00    -0.4073)  ( 2.00    -0.3827)
                     ( 2.00    -0.3822)  ( 2.00    -0.3374)  ( 2.00    -0.3105)  ( 2.00    -0.3102)
                     ( 2.00    -0.2378)  ( 2.00    -0.2376)  ( 0.00    -0.0502)

 CYCLE    7
  SDIIS (wt  1.000):  0.0008  0.0025  0.0004  0.0270  0.1370  0.8323
  DIIS coefficients:  0.0008  0.0025  0.0004  0.0270  0.1370  0.8323
 SCF Error: norm([F,P])=      0.001182117480, max([F,P])=      0.000345831872
 orbitals (Q,E):
 ---------------
 A :12...22          ( 2.00    -0.4791)  ( 2.00    -0.4181)  ( 2.00    -0.4075)  ( 2.00    -0.3828)
                     ( 2.00    -0.3823)  ( 2.00    -0.3376)  ( 2.00    -0.3107)  ( 2.00    -0.3103)
                     ( 2.00    -0.2380)  ( 2.00    -0.2377)  ( 0.00    -0.0504)

 CYCLE    8
  SDIIS (wt  1.000):  0.0006  0.0007  0.0000  0.0114  0.0636  0.5009  0.4228
  DIIS coefficients:  0.0006  0.0007  0.0000  0.0114  0.0636  0.5009  0.4228
 SCF Error: norm([F,P])=      0.000556984012, max([F,P])=      0.000131281706
 orbitals (Q,E):
 ---------------
 A :12...22          ( 2.00    -0.4791)  ( 2.00    -0.4181)  ( 2.00    -0.4075)  ( 2.00    -0.3828)
                     ( 2.00    -0.3823)  ( 2.00    -0.3376)  ( 2.00    -0.3107)  ( 2.00    -0.3103)
                     ( 2.00    -0.2380)  ( 2.00    -0.2377)  ( 0.00    -0.0504)

 CYCLE    9
  SDIIS (wt  1.000):  0.0001 -0.0002 -0.0000 -0.0004 -0.0008  0.0141  0.1699  0.8174
  DIIS coefficients:  0.0001 -0.0002 -0.0000 -0.0004 -0.0008  0.0141  0.1699  0.8174
 SCF Error: norm([F,P])=      0.000111171831, max([F,P])=      0.000026087442
 orbitals (Q,E):
 ---------------
 A :12...22          ( 2.00    -0.4791)  ( 2.00    -0.4181)  ( 2.00    -0.4075)  ( 2.00    -0.3828)
                     ( 2.00    -0.3823)  ( 2.00    -0.3376)  ( 2.00    -0.3107)  ( 2.00    -0.3103)
                     ( 2.00    -0.2380)  ( 2.00    -0.2377)  ( 0.00    -0.0504)

 CYCLE   10
  SDIIS (wt  1.000):  0.0000 -0.0001 -0.0000 -0.0002 -0.0004  0.0059  0.0749  0.3626  0.5572
  DIIS coefficients:  0.0000 -0.0001 -0.0000 -0.0002 -0.0004  0.0059  0.0749  0.3626  0.5572
 SCF Error: norm([F,P])=      0.000007717109, max([F,P])=      0.000001913061
 orbitals (Q,E):
 ---------------
 A :12...22          ( 2.00    -0.4791)  ( 2.00    -0.4181)  ( 2.00    -0.4075)  ( 2.00    -0.3828)
                     ( 2.00    -0.3823)  ( 2.00    -0.3376)  ( 2.00    -0.3107)  ( 2.00    -0.3103)
                     ( 2.00    -0.2380)  ( 2.00    -0.2377)  ( 0.00    -0.0504)

 CYCLE   11
  SDIIS (wt  1.000):  0.0000 -0.0000 -0.0000  0.0000 -0.0000 -0.0002 -0.0014 -0.0054  0.5167  0.4902
  DIIS coefficients:  0.0000 -0.0000 -0.0000  0.0000 -0.0000 -0.0002 -0.0014 -0.0054  0.5167  0.4902
 SCF Error: norm([F,P])=      0.000008024333, max([F,P])=      0.000002046169
 orbitals (Q,E):
 ---------------
 A :12...22          ( 2.00    -0.4791)  ( 2.00    -0.4181)  ( 2.00    -0.4075)  ( 2.00    -0.3828)
                     ( 2.00    -0.3823)  ( 2.00    -0.3376)  ( 2.00    -0.3107)  ( 2.00    -0.3103)
                     ( 2.00    -0.2380)  ( 2.00    -0.2377)  ( 0.00    -0.0504)

 CYCLE   12
  SDIIS (wt  1.000): -0.0000 -0.0000  0.0000 -0.0000 -0.0001 -0.0005 -0.0025  0.0958  0.0917  0.8156
  DIIS coefficients: -0.0000 -0.0000  0.0000 -0.0000 -0.0001 -0.0005 -0.0025  0.0958  0.0917  0.8156
 SCF Error: norm([F,P])=      0.000000073812, max([F,P])=      0.000000015730
 orbitals (Q,E):
 ---------------
 A :12...22          ( 2.00    -0.4791)  ( 2.00    -0.4181)  ( 2.00    -0.4075)  ( 2.00    -0.3828)
                     ( 2.00    -0.3823)  ( 2.00    -0.3376)  ( 2.00    -0.3107)  ( 2.00    -0.3103)
                     ( 2.00    -0.2380)  ( 2.00    -0.2377)  ( 0.00    -0.0504)

 SCF CONVERGED

 CYCLE   13
1
 ***************************************************************************************************



                                                *******************
                                                *  R E S U L T S  *
                                                *******************
  
 *** Using FIT density in Focky
  SDIIS (wt  1.000): -0.0000  0.0000 -0.0000 -0.0000 -0.0001 -0.0005  0.0170  0.0164  0.5530  0.4141
  DIIS coefficients: -0.0000  0.0000 -0.0000 -0.0000 -0.0001 -0.0005  0.0170  0.0164  0.5530  0.4141
 SCF Error: norm([F,P])=      0.000000089529, max([F,P])=      0.000000020131

 Orbital Energies, per Irrep and Spin:
 ======================================
                        Occup              E (au)              E (eV)       Diff (eV) with prev. cycle
                        -----      --------------------        ------       --------------------------
 A
              12        2.000     -0.47912684648244E+00       -13.038              -3.37E-09
              13        2.000     -0.41810404431180E+00       -11.377              -3.49E-09
              14        2.000     -0.40754396621344E+00       -11.090               2.12E-09
              15        2.000     -0.38283041216836E+00       -10.417               4.41E-10
              16        2.000     -0.38231707595082E+00       -10.403              -4.67E-09
              17        2.000     -0.33757439346961E+00        -9.186              -1.54E-09
              18        2.000     -0.31067759522012E+00        -8.454               1.13E-09
              19        2.000     -0.31031468706721E+00        -8.444              -2.40E-09
              20        2.000     -0.23796191411956E+00        -6.475               1.66E-10
              21        2.000     -0.23772961035889E+00        -6.469              -1.65E-09
              22        0.000     -0.50380700650848E-01        -1.371
              23        0.000     -0.50327378319374E-01        -1.369
              24        0.000      0.20378580162315E-02         0.055
              25        0.000      0.27843381697712E-01         0.758
              26        0.000      0.27864194299088E-01         0.758
              27        0.000      0.60724018201592E-01         1.652
              28        0.000      0.60758165315162E-01         1.653
              29        0.000      0.90664048693625E-01         2.467
              30        0.000      0.96122742875438E-01         2.616
              31        0.000      0.14212738058929E+00         3.867
  
 HOMO :       21 A                -0.23772961035889E+00
 LUMO :       22 A                -0.50380700650848E-01
  


 All Electron Calculation, thus no Orbital Energies of the Core Orbitals are calculated


 Fit test: (difference of exact and fit density, squared integrated, result summed over spins)
         Sum-of-Fragments:                             0.00000000048364
         Orthogonalized Fragments:                     0.00013305709874
         SCF:                                          0.00048708906447



 ==========================
 Electron Density at Nuclei
 ==========================
  
 The electron density is calculated at points on a small sphere around the center of a nucleus.
 The printed electron density is the average electron density on these points.
 The radius of the sphere is the printed approximate finite nuclear radius.

         Atom        Nuclear Radius (Angstrom)             Electron Density (a.u.)
         ----        -------------------------             -----------------------
     1)   C                 0.0000320678                              126.51423
     2)   C                 0.0000320678                              126.51575
     3)   C                 0.0000320678                              126.51468
     4)   C                 0.0000320678                              126.51423
     5)   C                 0.0000320678                              126.51575
     6)   C                 0.0000320678                              126.51465
     7)   H                 0.0000181514                                0.49879
     8)   H                 0.0000181514                                0.49874
     9)   H                 0.0000181514                                0.49855
    10)   H                 0.0000181514                                0.49879
    11)   H                 0.0000181514                                0.49869
    12)   H                 0.0000181514                                0.49855



 =======================================
 M U L L I K E N   P O P U L A T I O N S
 =======================================
  
 The survey below gives for each atom:
 a) the total charge (Z minus electrons)
 b) the net spin polarization (nr of electrons spin-A minus spin-B)
 c) for each spin the atomic electron valence density (integrated) per L-value.

 Atom              Charge    Spin density          S         P         D         F
 ----              ------    ------------       ------    ------    ------    ------
 1 C               0.1750                       3.0652    2.6988    0.0610    0.0000
 2 C               0.1759                       3.0648    2.6983    0.0610    0.0000
 3 C               0.1757                       3.0648    2.6985    0.0610    0.0000
 4 C               0.1750                       3.0652    2.6988    0.0610    0.0000
 5 C               0.1759                       3.0648    2.6983    0.0610    0.0000
 6 C               0.1757                       3.0649    2.6985    0.0610    0.0000
 7 H              -0.1759                       1.1044    0.0714    0.0000    0.0000
 8 H              -0.1756                       1.1042    0.0714    0.0000    0.0000
 9 H              -0.1751                       1.1038    0.0714    0.0000    0.0000
 10 H             -0.1759                       1.1044    0.0714    0.0000    0.0000
 11 H             -0.1756                       1.1042    0.0714    0.0000    0.0000
 12 H             -0.1751                       1.1037    0.0714    0.0000    0.0000

 Populations of individual BAS functions
 ----------------------------------------
 1 C            0.4869  1.5144  0.2301  0.8871 -0.0535 -0.1029  0.1472 -0.2380  0.8054  0.6781
                0.8824  0.2001  0.1366  0.1899  0.0267  0.0122  0.0174 -0.0175  0.0041  0.0182
 2 C            0.4870  1.5144  0.2296  0.8874 -0.0535 -0.2028  0.1474 -0.1393  0.8622  0.6781
                0.8263  0.1926  0.1366  0.1973  0.0181  0.0062  0.0220 -0.0175  0.0100  0.0222
 3 C            0.4870  1.5144  0.2296  0.8873 -0.0535 -0.2075  0.1475 -0.1342  0.8648  0.6780
                0.8234  0.1922  0.1366  0.1976  0.0180  0.0059  0.0216 -0.0175  0.0103  0.0227
 4 C            0.4869  1.5144  0.2301  0.8871 -0.0535 -0.1029  0.1472 -0.2380  0.8054  0.6781
                0.8824  0.2001  0.1366  0.1899  0.0267  0.0122  0.0174 -0.0175  0.0041  0.0182
 5 C            0.4870  1.5144  0.2296  0.8874 -0.0535 -0.2028  0.1474 -0.1393  0.8622  0.6781
                0.8263  0.1926  0.1366  0.1973  0.0181  0.0062  0.0220 -0.0175  0.0100  0.0222
 6 C            0.4869  1.5144  0.2297  0.8873 -0.0535 -0.2075  0.1475 -0.1342  0.8648  0.6780
                0.8234  0.1922  0.1366  0.1976  0.0180  0.0059  0.0216 -0.0175  0.0103  0.0227
 7 H            0.2098  0.5758  0.3189  0.0289  0.0217  0.0208
 8 H            0.2093  0.5760  0.3188  0.0295  0.0217  0.0202
 9 H            0.2085  0.5763  0.3189  0.0162  0.0217  0.0335
 10 H           0.2098  0.5758  0.3189  0.0289  0.0217  0.0208
 11 H           0.2093  0.5761  0.3188  0.0295  0.0217  0.0202
 12 H           0.2085  0.5763  0.3189  0.0162  0.0217  0.0335

 Gross Charges per Atom (Z minus electrons)
 ==========================================
             0.1750    0.1759    0.1757    0.1750    0.1759    0.1757   -0.1759   -0.1756   -0.1751   -0.1759
            -0.1756   -0.1751
 Net Total: -0.00000000


 Atom-Atom Population Matrix (off-diagonal elements not doubled)
 ===============================================================

     1 :     4.5229
     2 :     0.5416    4.5222
     3 :    -0.0105    0.5419    4.5223
     4 :    -0.0554   -0.0104    0.5418    4.5229
     5 :    -0.0104   -0.0557   -0.0110    0.5416    4.5222
     6 :     0.5418   -0.0110   -0.0556   -0.0105    0.5419    4.5224
     7 :    -0.0538    0.3938   -0.0534    0.0022    0.0041    0.0021    0.9823
     8 :     0.0022   -0.0534    0.3939   -0.0538    0.0021    0.0041   -0.0478    0.9820
     9 :     0.0041    0.0021   -0.0534    0.3940   -0.0533    0.0022   -0.0038   -0.0475    0.9806
    10 :     0.0022    0.0041    0.0021   -0.0538    0.3938   -0.0534    0.0015   -0.0039   -0.0475    0.9823
    11 :    -0.0538    0.0021    0.0041    0.0022   -0.0534    0.3939   -0.0039    0.0016   -0.0038   -0.0478
             0.9819
    12 :     0.3940   -0.0533    0.0022    0.0041    0.0021   -0.0534   -0.0475   -0.0038    0.0015   -0.0038
            -0.0475    0.9805



 =================================================
 H I R S H F E L D   C H A R G E   A N A L Y S I S
 =================================================
  
 For each fragment: the (numerical) integral of rho(scf) * rho(fragment)/rho(sum-of-fragments)
 (nuclear charges are included, electrons are counted negative)

 The fragments and their ordering are defined in the early G E O M E T R Y output section.
 If you use single-atom fragments, this usually implies that all atoms of the same
 chemical type are grouped together. This may not be the order in which you listed them
 in the input file!

    1  C                        -0.0462
    2  C                        -0.0464
    3  C                        -0.0463
    4  C                        -0.0462
    5  C                        -0.0464
    6  C                        -0.0463
    7  H                         0.0462
    8  H                         0.0462
    9  H                         0.0465
   10  H                         0.0462
   11  H                         0.0462
   12  H                         0.0465

 Sum of these charges (accuracy NumInt/Tails) =          -0.00006296



 =============================
 V O R O N O I   C H A R G E S
 =============================
  
 For each atom: the (numerical) integral of the total electronic charge density in its Voronoi cell,
 i.e. the region of space that is closer to that atom than to any other atom.
 (cf. Wigner-Seitz cells in crystals)

 Within the Voronoi cell the subintegrals over the atomic sphere and the remaining part are evaluated
 separately to give the numbers of electrons (negative charge) in these regions.
 The net total charge in the cell (including the nuclear charge) is also given.

 Values are provided for
    a) the Initial (sum-of-fragments) density
    b) the Orthogonalized-Fragments density
    c) the SCF density
    d) the Voronoi Deformation Density (VDD): the difference SCF-Initial for the complete atomic cell


  Atom                Initial                    OrthFrag                   SCF
             Sphere RestCell NetTotal   Sphere RestCell NetTotal   Sphere RestCell NetTotal      VDD
 -----       ------------------------   ------------------------   ------------------------    -----
    1 C      -2.269   -3.186    0.545   -2.452   -3.138    0.410   -2.303   -3.207    0.490   -0.056
    2 C      -2.269   -3.191    0.541   -2.452   -3.137    0.410   -2.303   -3.208    0.489   -0.051
    3 C      -2.269   -3.190    0.542   -2.452   -3.142    0.406   -2.303   -3.212    0.485   -0.056
    4 C      -2.269   -3.186    0.545   -2.452   -3.138    0.410   -2.303   -3.207    0.490   -0.056
    5 C      -2.269   -3.191    0.541   -2.452   -3.137    0.410   -2.303   -3.208    0.489   -0.051
    6 C      -2.269   -3.189    0.542   -2.452   -3.142    0.406   -2.303   -3.211    0.486   -0.056
    7 H      -0.075   -1.473   -0.547   -0.096   -1.317   -0.413   -0.109   -1.384   -0.493    0.055
    8 H      -0.075   -1.464   -0.539   -0.096   -1.309   -0.405   -0.109   -1.375   -0.484    0.055
    9 H      -0.075   -1.467   -0.542   -0.096   -1.313   -0.409   -0.109   -1.379   -0.488    0.054
   10 H      -0.075   -1.473   -0.547   -0.096   -1.317   -0.413   -0.109   -1.384   -0.493    0.055
   11 H      -0.075   -1.465   -0.539   -0.096   -1.310   -0.405   -0.109   -1.376   -0.484    0.055
   12 H      -0.075   -1.467   -0.542   -0.096   -1.313   -0.409   -0.109   -1.379   -0.488    0.054
 ---------------------------------------------------------------------------------------------------
 Total NetCharge:              -0.000                     -0.000                     -0.000    0.000
 (accuracy NumInt/Tails)

 Remark: the 'NetTotal' Voronoi charges often do not match the Mulliken and/or Hirshfeld charges very
 well. This is caused by the fact that chemically different atoms are not treated in accordance with
 their relative sizes. (Voronoi cells are defined by boundary planes halfway between the atoms.)
 However, the CHANGES in charge, comparing 'Initial' to 'SCF' for instance, do give a fair indication
 of the flow of charge caused by the relaxation from sum-of-fragments to self-consistency.

 Warning: the absolute accuracy of the VDD charges obtained using the Fuzzy Cells (Becke) integration
 scheme is much poorer than the one obtained with an 'equivalent' Voronoi integration grid. 



 =================================================================
 M U L T I P O L E   D E R I V E D   C H A R G E   A N A L Y S I S
 =================================================================

 This charge analysis uses the atomic multipoles (obtained from the fitted density) up to some level X,
 and reconstructs these multipoles exactly (up to level X) by distributing charges over all atoms.
 This is achieved by using Lagrange multipliers and a weight function to keep the multipoles local.

 Dummy atoms can be included (by setting INCDUM in MDC-block to 1) to obtain a fractional charge.
 This is generally useful and necessary only for small symmetrical molecules, when there are not
 enough degrees of freedom to reconstruct the multipoles.

 Since the atomic multipoles are reconstructed up to level X,
 the molecular multipoles are represented also up to level X.
 The recommended level is to reconstruct up to quadrupole : -> MDC-q charges.

 See: M. Swart, P.Th. van Duijnen, J.G. Snijders, J.Comput.Chem., (2001), p. 79-88.

 ------------------------------------------------------------- 
 Atomic electronic multipole moments from SCF equations (a.u.)
 ------------------------------------------------------------- 

   atom        charge        dip-x     dip-y     dip-z      quad-xx   quad-xy   quad-xz   quad-yy   quad-yz   quad-zz
 --------------------------------------------------------------------------------------------------------------------
    1 C      0.060980     0.000981  0.000000 -0.047091     0.467497 -0.000000 -0.000790 -0.996212 -0.000000  0.528714
    2 C      0.060398    -0.042193  0.000000 -0.025467     0.509339  0.000000  0.014253 -0.994004  0.000000  0.484665
    3 C      0.060531    -0.042583  0.000000  0.023270     0.512804 -0.000000 -0.014318 -0.995063  0.000000  0.482259
    4 C      0.060981    -0.001003  0.000000  0.047092     0.467511 -0.000000 -0.000837 -0.996214  0.000000  0.528703
    5 C      0.060397     0.042191 -0.000000  0.025466     0.509347 -0.000000  0.014257 -0.994001  0.000000  0.484654
    6 C      0.060523     0.042557  0.000000 -0.023244     0.512823  0.000000 -0.014294 -0.995060  0.000000  0.482237
    7 H     -0.060769    -0.019428 -0.000000 -0.011723     0.160709 -0.000000  0.080330 -0.195474 -0.000000  0.034764
    8 H     -0.060769    -0.019794  0.000000  0.010823     0.171032  0.000000 -0.076420 -0.195779  0.000000  0.024746
    9 H     -0.060373    -0.000502  0.000000  0.022804    -0.038811  0.000000 -0.003888 -0.194706  0.000000  0.233517
   10 H     -0.060768     0.019428  0.000000  0.011723     0.160709 -0.000000  0.080332 -0.195472 -0.000000  0.034763
   11 H     -0.060759     0.019814 -0.000000 -0.010824     0.171039  0.000000 -0.076413 -0.195774  0.000000  0.024735
   12 H     -0.060373     0.000485 -0.000000 -0.022804    -0.038816  0.000000 -0.003870 -0.194705  0.000000  0.233521

 --------------------------------------- 
 Multipole derived atomic charges (a.u.)
 --------------------------------------- 

 The MDC-m charges are just the Monopole terms in the multipole expansion, while for the MDC-d charges
 also the Dipoles are reconstructed. The usually preferred charges are the MDC-q charges.
 These reconstruct the Monopoles, Dipoles and Quadrupoles (both atomic AND molecular).

        Atom    Level:     MDC-m        MDC-d        MDC-q
 ---------------------------------------------------------
     1     C            0.060980     0.034959    -0.125956
     2     C            0.060398     0.034481    -0.128064
     3     C            0.060531     0.034630    -0.127859
     4     C            0.060981     0.034960    -0.125950
     5     C            0.060397     0.034479    -0.128070
     6     C            0.060523     0.034618    -0.127833
     7     H           -0.060769    -0.034524     0.127499
     8     H           -0.060769    -0.034807     0.127238
     9     H           -0.060373    -0.034733     0.127137
    10     H           -0.060768    -0.034525     0.127500
    11     H           -0.060759    -0.034804     0.127221
    12     H           -0.060373    -0.034734     0.127137

 ------------------------------------------------ 
 Average absolute deviations in atomic multipoles
 ------------------------------------------------ 

 Stated here are the average differences between the atomic multipoles
 and the reconstructed atomic multipoles (from the distributed charges).
 If these values are not zero, this means there are not enough degrees of freedom,
 to be able to reconstruct the atomic multipoles. (This usually happens only
 for small and/or highly symmetric molecules). If this is the case, one could add
 dummy atoms as extra point charges (and setting INCDUM in MDC-block to 1).

 Level:                                 MDC-d        MDC-q
 ---------------------------------------------------------
 Charge   (a.u.)                       0.0000       0.0000
 Dipole   (Debye)                      0.0000       0.0000
 Quad.    (a.u.)                       0.2134       0.0000

 --------------------------------------- 
 Represented molecular multipole moments
 --------------------------------------- 

 Given here are the Molecular multipole moments from the atomic charges, and from the Fit Density.
 Note that the atomic charges represent the latter, NOT the ones from the Exact density.

            Q (a.u.)             Dipole moment (Debye)                                          Quadrupole moment (a.u.)
                                 x         y         z              xx        xy        xz        yy        yz        zz
------------------------------------------------------------------------------------------------------------------------
MDC-m         0.0000        0.0001    0.0000   -0.0000         -1.3984    0.0003   -0.0019    2.7586   -0.0001   -1.3602
MDC-d         0.0000       -0.0001    0.0000    0.0000         -0.7917   -0.0003    0.0068    1.5781    0.0001   -0.7864
MDC-q         0.0000       -0.0001    0.0000    0.0000          2.8832   -0.0003    0.0048   -5.7910    0.0001    2.9078
 
Fit.Dens.     0.0000       -0.0001    0.0000    0.0000          2.8832   -0.0003    0.0039   -5.7910    0.0001    2.9078



 =============
 Dipole Moment  ***  (Debye)  ***
 =============
  
 Vector   :        -0.00006118      0.00000004      0.00003113
 Magnitude:         0.00006864

 This molecular dipole moment is calculated with analytic integration



 =========================================
 Quadrupole Moment (Buckingham convention)  ***  (a.u.)  ***
 =========================================
  
      quad-xx        quad-xy        quad-xz        quad-yy        quad-yz        quad-zz
      2.89458156    -0.00027279     0.00215082    -5.81922611     0.00013890     2.92464455

 This molecular quadrupole moment is calculated with analytic integration
1



 =======================================================
 S F O   P O P U L A T I O N S ,   M O   A N A L Y S I S
 =======================================================
  
 A Mulliken population analysis is performed on (input-)selected MOs. All populations refer to SFOs.
 BAS populations may have been printed directly after the SCF part.


                                       === A ===


 SFO contributions (%) per orbital
 (multiplication by the orbital occupation yields the SFO Gross Populations)

 Orb.:       12     13     14     15     16     17     18     19     20     21     22     23     24     25
 occup:     2.00   2.00   2.00   2.00   2.00   2.00   2.00   2.00   2.00   2.00   0.00   0.00   0.00   0.00
 CF+SFO     ----   ----   ----   ----   ----   ----   ----   ----   ----   ----   ----   ----   ----   ----
 ------
      2:    0.24   4.03   0.00   0.03   0.00   0.00  -0.06  -0.00  -0.00   0.00  -0.00  -0.00  -0.24   0.03
      3:   -0.08   0.11   0.00  -0.18  -0.00  -0.00  -0.02  -0.00   0.00   0.00   0.00   0.00  -2.70  -0.46
      6:    0.01   0.00  14.45   0.02   0.42  -0.00   0.00   9.18   0.00   0.00   0.00   0.00   0.00  -0.50
      7:    0.00   0.00   1.98   0.01   0.67  -0.00  -0.00   3.05   0.00  -0.00  -0.00   0.00  -0.00  -2.40
      9:   -0.00   0.00   0.00   0.00   0.00  17.22   0.00  -0.00  31.72   0.04  34.19   0.31   0.00   0.00
     10:    0.00   0.00  -0.00   0.00   0.00  -0.98  -0.00   0.00   0.11   0.00  -3.82  -0.03   0.00   0.00
     12:   10.69   2.67   0.01  17.60   0.10   0.00   5.85  -0.00  -0.00   0.00  -0.00  -0.00   0.72   0.60
     13:    0.23   0.29   0.00   1.24   0.01  -0.00   1.47  -0.00  -0.00  -0.00  -0.00  -0.00  -0.51  -8.37
     17:    0.00   0.00   0.00   0.00   0.00   0.00   0.00   0.00   0.00   0.61   0.01   1.13  -0.00   0.00
     21:    0.24   4.03  -0.00   0.01   0.03   0.00  -0.02  -0.05   0.00   0.00   0.00  -0.00  -0.25  -0.00
     22:   -0.08   0.11  -0.00  -0.06  -0.13   0.00  -0.01  -0.02  -0.00  -0.00   0.00   0.00  -2.68  -0.00
     25:    7.84   1.90   3.83   5.51   7.64  -0.00  -0.12   6.85   0.00  -0.00  -0.00  -0.00   0.53  -0.54
     26:    0.17   0.20   0.53   1.18  -0.07   0.00  -0.30   2.19   0.00  -0.00   0.00  -0.00  -0.37  -2.39
     28:   -0.00  -0.00   0.00  -0.00  -0.00  17.22  -0.00  -0.00   8.91  22.86   5.97  28.53   0.00  -0.00
     29:    0.00  -0.00   0.00  -0.00  -0.00  -0.98   0.00   0.00   0.03   0.08  -0.66  -3.19  -0.00  -0.00
     31:    2.86   0.70  10.63   0.37   4.65   0.00   8.37  -0.07   0.00  -0.00   0.00   0.00   0.19  -1.53
     32:    0.06   0.08   1.47  -0.33   1.13  -0.00   2.91  -0.28  -0.00   0.00   0.00   0.00  -0.14  -7.15
     40:    0.24   4.03  -0.00   0.00   0.03   0.00  -0.01  -0.05   0.00   0.00  -0.00  -0.00  -0.25   0.03
     41:   -0.08   0.11  -0.00  -0.03  -0.15   0.00  -0.00  -0.02  -0.00  -0.00  -0.00  -0.00  -2.69  -0.45
     44:    8.23   1.98   3.30   3.79  10.02  -0.00  -0.07   6.69   0.00  -0.00   0.00  -0.00   0.56   0.79
     45:    0.18   0.21   0.46   0.93   0.20   0.00  -0.24   2.08  -0.00  -0.00   0.00  -0.00  -0.39  -2.78
     47:    0.00   0.00   0.00   0.00   0.00  17.22   0.00   0.00   7.02  24.75  11.59  22.91   0.00  -0.00
     48:   -0.00   0.00   0.00   0.00   0.00  -0.98   0.00  -0.00   0.03   0.09  -1.29  -2.56   0.00   0.00
     50:    2.48   0.60  11.16  -0.03   4.42  -0.00   8.52  -0.10  -0.00   0.00  -0.00   0.00   0.17  -0.80
     51:    0.05   0.07   1.55  -0.15   0.94  -0.00   2.95  -0.26   0.00   0.00   0.00   0.00  -0.12  -7.82
     59:    0.24   4.03   0.00   0.03   0.00  -0.00  -0.06  -0.00   0.00   0.00  -0.00   0.00  -0.24   0.03
     60:   -0.08   0.11   0.00  -0.18  -0.00  -0.00  -0.02  -0.00  -0.00   0.00   0.00   0.00  -2.70  -0.46
     63:    0.01   0.00  14.45   0.02   0.42   0.00   0.00   9.18   0.00   0.00  -0.00  -0.00   0.00  -0.50
     64:    0.00   0.00   1.98   0.01   0.67   0.00  -0.00   3.04  -0.00   0.00  -0.00   0.00  -0.00  -2.40
     66:   -0.00  -0.00   0.00   0.00   0.00  17.22  -0.00  -0.00  31.72   0.04  34.19   0.31   0.00   0.00
     67:    0.00   0.00   0.00   0.00  -0.00  -0.98  -0.00   0.00   0.11   0.00  -3.82  -0.03   0.00   0.00
     69:   10.69   2.67   0.01  17.60   0.10   0.00   5.85  -0.00  -0.00  -0.00   0.00   0.00   0.72   0.60
     70:    0.23   0.29   0.00   1.24   0.01  -0.00   1.47  -0.00   0.00  -0.00  -0.00  -0.00  -0.51  -8.37
     74:    0.00   0.00   0.00   0.00   0.00   0.00   0.00   0.00   0.00   0.61   0.01   1.13  -0.00  -0.00
     78:    0.24   4.03  -0.00   0.00   0.03   0.00  -0.02  -0.05   0.00   0.00   0.00   0.00  -0.25  -0.00
     79:   -0.08   0.11  -0.00  -0.06  -0.13  -0.00  -0.01  -0.02   0.00  -0.00   0.00  -0.00  -2.68  -0.00
     82:    7.84   1.90   3.83   5.51   7.65  -0.00  -0.12   6.85  -0.00   0.00  -0.00  -0.00   0.53  -0.54
     83:    0.17   0.20   0.53   1.18  -0.07   0.00  -0.30   2.19   0.00  -0.00   0.00   0.00  -0.37  -2.39
     85:   -0.00   0.00  -0.00   0.00   0.00  17.22   0.00   0.00   8.91  22.86   5.97  28.53   0.00   0.00
     86:   -0.00   0.00  -0.00  -0.00  -0.00  -0.98   0.00   0.00   0.03   0.08  -0.66  -3.19   0.00  -0.00
     88:    2.86   0.70  10.64   0.37   4.65  -0.00   8.36  -0.07  -0.00  -0.00  -0.00  -0.00   0.19  -1.53
     89:    0.06   0.08   1.47  -0.33   1.13   0.00   2.91  -0.28  -0.00   0.00  -0.00  -0.00  -0.13  -7.15
     97:    0.24   4.04  -0.00   0.00   0.03   0.00  -0.01  -0.05  -0.00   0.00  -0.00  -0.00  -0.25   0.03
     98:   -0.08   0.11  -0.00  -0.03  -0.15   0.00  -0.00  -0.02   0.00   0.00   0.00  -0.00  -2.69  -0.45
    101:    8.23   1.98   3.30   3.79  10.02  -0.00  -0.07   6.69  -0.00   0.00  -0.00  -0.00   0.56   0.79
    102:    0.18   0.21   0.46   0.93   0.20   0.00  -0.24   2.08   0.00   0.00  -0.00   0.00  -0.39  -2.78
    104:   -0.00  -0.00   0.00   0.00  -0.00  17.22  -0.00   0.00   7.02  24.75  11.59  22.91   0.00   0.00
    105:    0.00  -0.00   0.00  -0.00  -0.00  -0.98   0.00  -0.00   0.03   0.09  -1.29  -2.56   0.00   0.00
    107:    2.47   0.60  11.17  -0.03   4.42   0.00   8.52  -0.10  -0.00   0.00  -0.00  -0.00   0.17  -0.79
    108:    0.05   0.07   1.55  -0.15   0.94  -0.00   2.95  -0.26  -0.00   0.00   0.00  -0.00  -0.12  -7.82
    115:    5.54   9.13   0.00   4.11   8.88   0.00   3.74   9.61   0.00   0.00   0.00   0.00   7.80   0.01
    116:   -0.02   0.16   0.00   0.05   0.11  -0.00  -0.05  -0.14   0.00  -0.00   0.00  -0.00  11.27   0.01
    119:   -0.00   0.00   0.00   0.00  -0.00   0.25  -0.00  -0.00   0.23   0.60   0.24   1.13  -0.00   0.00
    121:    5.54   9.09   0.00   2.52  10.50   0.00   2.94  10.41  -0.00   0.00  -0.00  -0.00   7.81  16.02
    122:   -0.02   0.16   0.00   0.03   0.13  -0.00  -0.04  -0.15   0.00   0.00  -0.00   0.00  11.29  23.84
    127:    5.54   9.24   0.00  12.81   0.06  -0.00  13.34   0.02  -0.00   0.00   0.00   0.00   7.80  16.95
    128:   -0.02   0.16  -0.00   0.16   0.00   0.00  -0.20  -0.00  -0.00   0.00   0.00   0.00  11.27  25.14
    131:   -0.00   0.00   0.00   0.00  -0.00   0.25   0.00   0.00   0.83   0.00   1.36   0.01  -0.00  -0.00
    133:    5.54   9.13   0.00   4.11   8.88  -0.00   3.74   9.61   0.00  -0.00  -0.00  -0.00   7.80   0.01
    134:   -0.02   0.16   0.00   0.05   0.11  -0.00  -0.05  -0.14   0.00   0.00  -0.00  -0.00  11.27   0.01
    137:   -0.00   0.00   0.00   0.00   0.00   0.25  -0.00  -0.00   0.23   0.60   0.24   1.13  -0.00  -0.00
    139:    5.53   9.09   0.00   2.52  10.50   0.00   2.94  10.41   0.00  -0.00   0.00   0.00   7.82  16.02
    140:   -0.02   0.16   0.00   0.03   0.13  -0.00  -0.04  -0.15  -0.00  -0.00   0.00   0.00  11.29  23.84
    145:    5.54   9.24   0.00  12.81   0.06  -0.00  13.34   0.02   0.00  -0.00   0.00   0.00   7.80  16.94
    146:   -0.02   0.16  -0.00   0.16   0.00   0.00  -0.20  -0.00   0.00   0.00   0.00   0.00  11.27  25.12
    149:    0.00  -0.00   0.00  -0.00  -0.00   0.25  -0.00   0.00   0.83   0.00   1.36   0.01   0.00   0.00


 Summation over all MOs, multiplied by occupation: Total SFO Gross Populations in this Irrep
 ===========================================================================================

     2.00    1.07   -0.01   -0.00   -0.00    0.84    0.07   -0.01    0.98   -0.02   -0.00    0.81
     0.03   -0.01    0.02    0.01    0.01    0.02    0.00    2.00    1.07   -0.01   -0.00   -0.00
     0.82    0.04   -0.01    0.98   -0.02   -0.00    0.83    0.06   -0.01    0.02    0.01    0.01
     0.02    0.01    2.00    1.07   -0.01   -0.00   -0.00    0.82    0.04   -0.01    0.98   -0.02
    -0.00    0.83    0.06   -0.01    0.02    0.01    0.01    0.02    0.01    2.00    1.07   -0.01
    -0.00   -0.00    0.84    0.07   -0.01    0.98   -0.02   -0.00    0.81    0.03   -0.01    0.02
     0.01    0.01    0.02    0.00    2.00    1.07   -0.01   -0.00   -0.00    0.82    0.04   -0.01
     0.98   -0.02   -0.00    0.83    0.06   -0.01    0.02    0.01    0.01    0.02    0.01    2.00
     1.07   -0.01   -0.00   -0.00    0.82    0.04   -0.01    0.98   -0.02   -0.00    0.83    0.06
    -0.01    0.02    0.01    0.01    0.02    0.01    1.11   -0.00   -0.00    0.03    0.02    0.02
     1.11   -0.00   -0.00    0.03    0.02    0.02    1.11   -0.00   -0.00    0.02    0.02    0.03
     1.11   -0.00   -0.00    0.03    0.02    0.02    1.11   -0.00   -0.00    0.03    0.02    0.02
     1.11   -0.00   -0.00    0.02    0.02    0.03



 List of all MOs, ordered by energy, with the most significant SFO gross populations
 ===================================================================================

 Each percentage contribution in the table below corresponds to the indicated SFO.
 In general, a SFO may be a linear combination of several Fragment Orbitals on the same,
 or on symmetry-related Fragments. Only the first 'member' of such a combination is
 specified here. A full definition of all SFOs is given in an earlier part of the output.
 The numbering of the SFOs in this table does NOT include the Core Orbitals, and starts
 from one for each symmetry representation, as in the SFO definition list earlier.

       E(eV)  Occ       MO           %     SFO (first member)   E(eV)  Occ   Fragment
 -------------------------------------------------------------------------------------

     -21.394  2.00     7 A         14.60%     2 S             -13.876  2.00     2 C
                                   14.60%     2 S             -13.876  2.00     5 C
                                   14.60%     2 S             -13.876  2.00     3 C
                                   14.60%     2 S             -13.876  2.00     6 C
                                   14.59%     2 S             -13.876  2.00     4 C
                                   14.59%     2 S             -13.876  2.00     1 C
                                    2.38%     1 P:z            -5.403  0.67     4 C
                                    2.38%     1 P:z            -5.403  0.67     1 C
                                    1.82%     1 P:x            -5.403  0.67     6 C
                                    1.82%     1 P:x            -5.403  0.67     3 C
                                    1.74%     1 P:x            -5.403  0.67     5 C
                                    1.74%     1 P:x            -5.403  0.67     2 C
                                    1.24%     1 S              -6.626  1.00     7 H
                                    1.24%     1 S              -6.626  1.00    10 H
                                    1.24%     1 S              -6.626  1.00     8 H
                                    1.24%     1 S              -6.626  1.00     9 H
                                    1.23%     1 S              -6.626  1.00    12 H
                                    1.23%     1 S              -6.626  1.00    11 H
     -18.624  2.00     8 A         22.86%     2 S             -13.876  2.00     1 C
                                   22.86%     2 S             -13.876  2.00     4 C
                                    7.76%     2 S             -13.876  2.00     2 C
                                    7.76%     2 S             -13.876  2.00     5 C
                                    5.61%     1 S              -6.626  1.00    12 H
                                    5.61%     1 S              -6.626  1.00     9 H
                                    3.98%     2 S             -13.876  2.00     3 C
                                    3.98%     2 S             -13.876  2.00     6 C
                                    3.30%     1 P:z            -5.403  0.67     3 C
                                    3.30%     1 P:z            -5.403  0.67     6 C
                                    2.33%     1 P:z            -5.403  0.67     5 C
                                    2.33%     1 P:z            -5.403  0.67     2 C
                                    1.91%     1 S              -6.626  1.00     7 H
                                    1.91%     1 S              -6.626  1.00    10 H
                                    1.42%     1 P:x            -5.403  0.67     2 C
                                    1.42%     1 P:x            -5.403  0.67     5 C
                                    1.42%     1 P:x            -5.403  0.67     6 C
                                    1.42%     1 P:x            -5.403  0.67     3 C
                                   -1.36%     2 P:z             4.709  0.00     3 C
                                   -1.36%     2 P:z             4.709  0.00     6 C
                                   -1.20%     2 P:z             4.709  0.00     2 C
                                   -1.20%     2 P:z             4.709  0.00     5 C
     -18.617  2.00     9 A         19.08%     2 S             -13.876  2.00     6 C
[...]
 CRIT  9.258681793578469E-002
 iter.  8 V(1) measure  0.8959612605059E+05
        8        delta  0.5386833740195E+00
 CRIT  5.380375494008426E-002
 iter.  9 V(1) measure  0.8959587964821E+05
        9        delta  0.2464023801294E+00
 CRIT  4.131151384697222E-002
 iter. 10 V(1) measure  0.8959572690235E+05
       10        delta  0.1527458575292E+00
 CRIT  1.010740388718712E-002
 iter. 11 V(1) measure  0.8959575486565E+05
       11        delta  0.2796329978446E-01
 *** convergence reached

    RRIJmat_z_z         
    using first order VWN potential
 
    NOTE: We will NOT use the GGA kernel (input option ALDA was set)
 
 CRIT   1.00000000000000     
 iter.  1 V(1) measure  0.1304238689367E+04
 *** convergence criterion : .1304239E-02
 CRIT   154.664186317680     
 iter.  2 V(1) measure  0.1074734388102E+04
        2        delta  0.2295043012649E+03
 CRIT   57.3809670071632     
 iter.  3 V(1) measure  0.1110391916348E+04
        3        delta  0.3565752824635E+02
 CRIT   15.8504059569917     
 iter.  4 V(1) measure  0.1115981291028E+04
        4        delta  0.5589374679299E+01
 CRIT   3.59187994644314     
 iter.  5 V(1) measure  0.1116877511999E+04
        5        delta  0.8962209710571E+00
 CRIT   1.53276501329474     
 iter.  6 V(1) measure  0.1116978118851E+04
        6        delta  0.1006068524430E+00
 CRIT  0.204417603646042     
 iter.  7 V(1) measure  0.1116976130972E+04
        7        delta  0.1987879327771E-02
 CRIT  4.293186883032515E-002
 iter.  8 V(1) measure  0.1116974460820E+04
        8        delta  0.1670151383223E-02
 CRIT  5.824098489498747E-002
 iter.  9 V(1) measure  0.1116972166629E+04
        9        delta  0.2294191544024E-02
 CRIT  4.516449402250402E-003
 iter. 10 V(1) measure  0.1116972278374E+04
       10        delta  0.1117447548040E-03
 *** convergence reached
 ------------------------------------------
 Convergence acceleration: T
 QUADRUPOLE-QUADRUPOLE POLARIZABILITY     
 Frequency  =  0.1322975682     Hartrees
 Wavelength =   344.4005294     nm
 Wavenumber =   29035.96001     cm^{-1}
 Energy     =   3.600000000     eV
 ------------------------------------------
 QUADRUPOLE-QUADRUPOLE Polarizability tensor:
 
 xx xx     4189.47367315463     
 xx xy    0.134599301260134     
 xx xz   -7.304996578727455E-002
 xx yy    -4990.94596972198     
 xx yz   -5.022948296484664E-002
 xx zz     801.472296567376     
 xy xx    0.135226830682671     
 xy xy     12585.4292647186     
 xy xz   -0.109244587196700     
 xy yy   -4.277324848637656E-002
 xy yz   -0.849559371375709     
 xy zz   -9.245358217944991E-002
 xz xx   -7.367120150182292E-002
 xz xy   -0.109256184234656     
 xz xz     1692.35245451183     
 xz yy    0.168898228761715     
 xz yz    1.955138317990048E-002
 xz zz   -9.522702725705372E-002
 yy xx    -4990.92302649360     
 yy xy    0.401186071137182     
 yy xz    0.156937988326466     
 yy yy     9983.83644526649     
 yy yz   -0.212366262822035     
 yy zz    -4992.91341877289     
 yz xx   -5.056461395649237E-002
 yz xy   -0.893186462132257     
 yz xz    1.966177176459157E-002
 yz yy    2.220345177287708E-002
 yz yz     12597.1536849465     
 yz zz    2.836116217663487E-002
 zz xx     801.483183932735     
 zz xy   -9.154841295837750E-002
 zz xz   -8.926443856505717E-002
 zz yy    -4992.72888821074     
 zz yz    2.624429892418867E-002
 zz zz     4191.24570427798     
 
 Imaginary QUADRUPOLE-QUADRUPOLE Polarizability tensor:
 
 xx xx     18.7111313840697     
 xx xy    1.954268653208742E-003
 xx xz   -1.410332542334393E-003
 xx yy    -21.5597313557088     
 xx yz   -1.372801671418938E-003
 xx zz     2.84859997163937     
 xy xx    1.206027190957262E-003
 xy xy     124.914702532104     
 xy xz   -1.168117811974125E-003
 xy yy   -6.792023166666761E-004
 xy yz   -4.476178411116549E-003
 xy zz   -5.268248741576503E-004
 xz xx   -1.273075233825950E-003
 xz xy   -1.271756002998772E-003
 xz xz     7.92806434287833     
 xz yy    1.238266951366125E-003
 xz yz    8.043213486376159E-005
 xz zz    3.480828251263132E-005
 yy xx    -21.5323987422830     
 yy xy    0.103193484722200     
 yy xz    9.479144729254817E-004
 yy yy     43.0867309373695     
 yy yz   -5.472064846718663E-002
 yy zz    -21.5543321950858     
 yz xx   -8.126397930946147E-004
 yz xy   -1.241969485092492E-002
 yz xz    1.404908053087796E-004
 yz yy    3.567655105637599E-004
 yz yz     125.019061721771     
 yz zz    4.558742824211457E-004
 zz xx     2.84729344806968     
 zz xy   -1.908113401405506E-003
 zz xz    1.020539383041019E-004
 zz yy    -21.5628544921111     
 zz yz    4.324601273421376E-003
 zz zz     18.7155610440413     



 =======================================================================
 Electrostatic potential at the Nuclei due to electrons and other nuclei
 =======================================================================
  
         Atom                  Potential
         ----                  ---------
     1)   C                  14.76884247
     2)   C                  14.76882639
     3)   C                  14.76878405
     4)   C                  14.76884344
     5)   C                  14.76882509
     6)   C                  14.76877170
     7)   H                   1.10123042
     8)   H                   1.10132994
     9)   H                   1.10131589
    10)   H                   1.10123036
    11)   H                   1.10131856
    12)   H                   1.10131616
 
 
 ========================
 No memory problems found
 ========================
 
 Maximum number of active allocate calls:        1279
 
 *******************************************************************************

                             A D F   E X I T
 NORMAL TERMINATION



 =================
 Timing Statistics
 =================
  
 Total Used :                     CPU=       40.99      System=        0.54     Elapsed=       41.99

 Calls  Section                     ( Mean, Percentage )
 ---------------------------------------------------------------------------------------------------
     3  ><      ................      0.00    0.01             0.00    0.00             0.00    0.01
     1  INIT    ................      0.58    1.41             0.01    1.23             0.60    1.43
     1  GEOMET  ................      0.04    0.09             0.01    2.23             0.05    0.12
     1  FRAGM   ................      0.03    0.06             0.01    2.17             0.04    0.09
     1  INPUTA  ................      0.00    0.01             0.00    0.00             0.00    0.01
     1  ATDEN   ................      0.00    0.01             0.00    0.00             0.00    0.01
     1  MAINSY  ................      0.03    0.07             0.01    1.45             0.04    0.09
     1  SYMFIT  ................      0.01    0.02             0.00    0.02             0.01    0.02
     1  CORORT  ................      0.00    0.00             0.00    0.02             0.00    0.00
     1  SYMORB  ................      0.00    0.01             0.00    0.01             0.00    0.01
     1  CLSMAT  ................      0.01    0.03             0.00    0.00             0.01    0.03
     1  ORTHON  ................      0.02    0.05             0.00    0.20             0.02    0.05
     1  GENPT   ................      0.12    0.29             0.02    3.44             0.14    0.34
     1  PTBAS   ................      0.09    0.21             0.00    0.80             0.10    0.23
    13  FOCKY   ................      0.28    8.90             0.00    4.02             0.29    8.95
    13  FOCKTR  ................      0.00    0.08             0.00    1.11             0.00    0.10
    13  SDIIS   ................      0.00    0.16             0.00    0.20             0.01    0.16
     1  COREPS  ................      0.22    0.53             0.00    0.72             0.23    0.54
     1  TOTEN   ................      0.98    2.38             0.01    2.17             1.01    2.39
     1  POPAN   ................      0.01    0.02             0.00    0.00             0.01    0.02
     1  DEBYE   ................      0.01    0.03             0.00    0.71             0.02    0.05
     1  INPUTE  ................      0.00    0.00             0.00    0.00             0.00    0.00
     1  SYMORE  ................      0.00    0.00             0.00    0.00             0.00    0.00
     1  METS    ................      0.00    0.01             0.00    0.00             0.00    0.01
     1  CETS    ................      0.01    0.03             0.00    0.00             0.01    0.03
     1  ELNRGY  ................      0.01    0.03             0.00    0.00             0.01    0.03
     1  POPUL   ................      0.01    0.04             0.00    0.00             0.02    0.04
     1  AORESPONSE .............     35.03   85.46             0.43   78.78            35.76   85.18
     1  EXIT PROCEDURE .........      0.03    0.06             0.00    0.72             0.03    0.07


 Currently Open Files (EXIT00)
 ====================

 Unit    Access Format  Status   Type       Ident (file)
 -------------------------------------------------------
   3      SEQ    FORM   TRANSP  NORMAL      LOGFILE
                                          ( logfile )

 ***************************************************************************************************
 (LOGFILE)
 <Sep29-2020> <15:27:24>  ADF 2019  RunTime: Sep29-2020 15:27:24  Nodes: 1  Procs: 1
 <Sep29-2020> <15:27:24>  Hydrogen (TZP)
 <Sep29-2020> <15:27:24>  RunType   : CREATE
 <Sep29-2020> <15:27:24>  Net Charge: 0 (Nuclei minus Electrons)
 <Sep29-2020> <15:27:24>  Symmetry  : ATOM
  Coordinates
    Atom         X           Y           Z   (Angstrom)
    1.H         0.000000    0.000000    0.000000
 <Sep29-2020> <15:27:24>  >>>> CORORT
 <Sep29-2020> <15:27:24>  >>>> CLSMAT
 <Sep29-2020> <15:27:24>  >>>> ORTHON
 <Sep29-2020> <15:27:24>  >>>> GENPT
 <Sep29-2020> <15:27:24>  Block Length=  64
 <Sep29-2020> <15:27:24>  >>>> PTBAS
 <Sep29-2020> <15:27:24>  >>>> CYCLE
 <Sep29-2020> <15:27:24>              |Error|         MaxErr       Wt(A-DIIS)
 <Sep29-2020> <15:27:24>      1      0.00000000      0.00000000
 <Sep29-2020> <15:27:24>      2      0.03052909      0.02968459
 <Sep29-2020> <15:27:24>      3      0.00718138      0.00670742    100.0
 <Sep29-2020> <15:27:24>      4      0.00117303      0.00114116      0.1
 <Sep29-2020> <15:27:24>      5      0.00002783      0.00002380      0.0
 <Sep29-2020> <15:27:25>      6      0.00000153      0.00000130      0.0
 <Sep29-2020> <15:27:25>      7      0.00000000      0.00000000      0.0
 <Sep29-2020> <15:27:25>  SCF converged
 <Sep29-2020> <15:27:25>      8      0.00000000      0.00000000      0.0
 <Sep29-2020> <15:27:25>  >>>> POPAN
 <Sep29-2020> <15:27:25>  >>>> DEBYE
 <Sep29-2020> <15:27:25>  NORMAL TERMINATION
 <Sep29-2020> <15:27:25>  END
 <Sep29-2020> <15:27:25>  ADF 2019  RunTime: Sep29-2020 15:27:25  Nodes: 1  Procs: 1
 <Sep29-2020> <15:27:25>  Carbon (TZP)
 <Sep29-2020> <15:27:25>  RunType   : CREATE
 <Sep29-2020> <15:27:25>  Net Charge: 0 (Nuclei minus Electrons)
 <Sep29-2020> <15:27:25>  Symmetry  : ATOM
  Coordinates
    Atom         X           Y           Z   (Angstrom)
    1.C         0.000000    0.000000    0.000000
 <Sep29-2020> <15:27:25>  >>>> CORORT
 <Sep29-2020> <15:27:25>  >>>> CLSMAT
 <Sep29-2020> <15:27:25>  >>>> ORTHON
 <Sep29-2020> <15:27:25>  >>>> GENPT
 <Sep29-2020> <15:27:25>  Block Length=  72
 <Sep29-2020> <15:27:25>  >>>> PTBAS
 <Sep29-2020> <15:27:25>  >>>> CYCLE
 <Sep29-2020> <15:27:25>              |Error|         MaxErr       Wt(A-DIIS)
 <Sep29-2020> <15:27:25>      1      0.00000000      0.00000000
 <Sep29-2020> <15:27:25>      2      4.48324754      3.31969244    100.0
 <Sep29-2020> <15:27:25>      3      1.61537707      1.30410194    100.0
 <Sep29-2020> <15:27:25>      4      0.72706284      0.59053131    100.0
 <Sep29-2020> <15:27:25>      5      0.40898688      0.33263800    100.0
 <Sep29-2020> <15:27:25>      6      0.13548919      0.10594416    100.0
 <Sep29-2020> <15:27:25>      7      0.11406432      0.09088019     90.8
 <Sep29-2020> <15:27:25>      8      0.01170325      0.00926551      8.3
 <Sep29-2020> <15:27:25>      9      0.00078015      0.00061791      0.0
 <Sep29-2020> <15:27:25>     10      0.00000178      0.00000107      0.0
 <Sep29-2020> <15:27:25>     11      0.00000024      0.00000019      0.0
 <Sep29-2020> <15:27:26>     12      0.00000000      0.00000000      0.0
 <Sep29-2020> <15:27:26>  SCF converged
 <Sep29-2020> <15:27:26>     13      0.00000000      0.00000000      0.0
 <Sep29-2020> <15:27:26>  >>>> POPAN
 <Sep29-2020> <15:27:26>  >>>> DEBYE
 <Sep29-2020> <15:27:26>  NORMAL TERMINATION
 <Sep29-2020> <15:27:26>  END
 <Sep29-2020> <15:27:26>  ADF 2019  RunTime: Sep29-2020 15:27:26  Nodes: 1  Procs: 6
 <Sep29-2020> <15:27:26>  None
 <Sep29-2020> <15:27:26>  RunType   : SINGLE POINT
 <Sep29-2020> <15:27:26>  Net Charge: 0 (Nuclei minus Electrons)
 <Sep29-2020> <15:27:26>  Symmetry  : NOSYM
 <Sep29-2020> <15:27:26>  >>>> FRAGM
  Coordinates
    Atom         X           Y           Z   (Angstrom)
    1.C         0.029726    4.000000   -1.400495
    2.C        -1.195841    4.000000   -0.725432
    3.C        -1.225509    4.000000    0.673843
    4.C        -0.029726    4.000000    1.400495
    5.C         1.195841    4.000000    0.725432
    6.C         1.225509    4.000000   -0.673843
    7.H        -2.129862    4.000000   -1.290113
    8.H        -2.182751    4.000000    1.198418
    9.H        -0.053058    4.000000    2.491995
   10.H         2.129862    4.000000    1.290113
   11.H         2.182851    4.000000   -1.198418
   12.H         0.052958    4.000000   -2.491995
 <Sep29-2020> <15:27:27>  >>>> CORORT
 <Sep29-2020> <15:27:27>  >>>> CLSMAT
 <Sep29-2020> <15:27:27>  >>>> ORTHON
 <Sep29-2020> <15:27:27>  >>>> GENPT
 <Sep29-2020> <15:27:27>  Block Length= 128
 <Sep29-2020> <15:27:27>  >>>> PTBAS
 <Sep29-2020> <15:27:27>  >>>> CYCLE
 <Sep29-2020> <15:27:27>              |Error|         MaxErr       Wt(A-DIIS)
 <Sep29-2020> <15:27:27>      1      5.99093440      0.98032655
 <Sep29-2020> <15:27:28>      2      0.89231196      0.18699794    100.0
 <Sep29-2020> <15:27:28>      3      0.52144721      0.10261151    100.0
 <Sep29-2020> <15:27:28>      4      0.74323780      0.17248532    100.0
 <Sep29-2020> <15:27:28>      5      0.07622206      0.01079898      9.9
 <Sep29-2020> <15:27:29>      6      0.01074051      0.00172250      0.7
 <Sep29-2020> <15:27:29>      7      0.00118212      0.00034583      0.0
 <Sep29-2020> <15:27:29>      8      0.00055698      0.00013128      0.0
 <Sep29-2020> <15:27:30>      9      0.00011117      0.00002609      0.0
 <Sep29-2020> <15:27:30>     10      0.00000772      0.00000191      0.0
 <Sep29-2020> <15:27:30>     11      0.00000802      0.00000205      0.0
 <Sep29-2020> <15:27:30>     12      0.00000007      0.00000002      0.0
 <Sep29-2020> <15:27:30>  SCF converged
 <Sep29-2020> <15:27:31>     13      0.00000009      0.00000002      0.0
 <Sep29-2020> <15:27:31>  >>>> TOTEN
 <Sep29-2020> <15:27:32>  >>>> POPAN
 <Sep29-2020> <15:27:32>  >>>> DEBYE
 <Sep29-2020> <15:27:32>  >>>> AMETS
 <Sep29-2020> <15:27:32>  >>>> POPUL
 <Sep29-2020> <15:27:32>     1 V(1)  0.1839881E+04
 <Sep29-2020> <15:27:33>     2 V(1)  0.1570569E+04
 <Sep29-2020> <15:27:33>     3 V(1)  0.1553349E+04
 <Sep29-2020> <15:27:34>     4 V(1)  0.1559885E+04
 <Sep29-2020> <15:27:34>     5 V(1)  0.1561843E+04
 <Sep29-2020> <15:27:34>     6 V(1)  0.1561735E+04
 <Sep29-2020> <15:27:35>     7 V(1)  0.1561668E+04
 <Sep29-2020> <15:27:35>     8 V(1)  0.1561664E+04
 <Sep29-2020> <15:27:35>     9 V(1)  0.1561659E+04
 <Sep29-2020> <15:27:36>    10 V(1)  0.1561658E+04
 <Sep29-2020> <15:27:36>   convergence reached
 <Sep29-2020> <15:27:36>     1 V(1)  0.2536249E+02
 <Sep29-2020> <15:27:37>     2 V(1)  0.2328917E+02
 <Sep29-2020> <15:27:37>     3 V(1)  0.2328382E+02
 <Sep29-2020> <15:27:37>     4 V(1)  0.2328307E+02
 <Sep29-2020> <15:27:38>     5 V(1)  0.2328295E+02
 <Sep29-2020> <15:27:38>     6 V(1)  0.2328299E+02
 <Sep29-2020> <15:27:39>     7 V(1)  0.2328299E+02
 <Sep29-2020> <15:27:39>   convergence reached
 <Sep29-2020> <15:27:39>     1 V(1)  0.1846012E+04
 <Sep29-2020> <15:27:40>     2 V(1)  0.1575982E+04
 <Sep29-2020> <15:27:40>     3 V(1)  0.1558642E+04
 <Sep29-2020> <15:27:40>     4 V(1)  0.1565199E+04
 <Sep29-2020> <15:27:41>     5 V(1)  0.1567040E+04
 <Sep29-2020> <15:27:41>     6 V(1)  0.1567110E+04
 <Sep29-2020> <15:27:41>     7 V(1)  0.1566984E+04
 <Sep29-2020> <15:27:42>     8 V(1)  0.1566976E+04
 <Sep29-2020> <15:27:42>     9 V(1)  0.1566973E+04
 <Sep29-2020> <15:27:43>    10 V(1)  0.1566970E+04
 <Sep29-2020> <15:27:43>    11 V(1)  0.1566970E+04
 <Sep29-2020> <15:27:43>   convergence reached
 <Sep29-2020> <15:27:43>     1 V(1)  0.1302167E+04
 <Sep29-2020> <15:27:44>     2 V(1)  0.1073233E+04
 <Sep29-2020> <15:27:44>     3 V(1)  0.1108878E+04
 <Sep29-2020> <15:27:45>     4 V(1)  0.1114449E+04
 <Sep29-2020> <15:27:45>     5 V(1)  0.1115346E+04
 <Sep29-2020> <15:27:46>     6 V(1)  0.1115445E+04
 <Sep29-2020> <15:27:46>     7 V(1)  0.1115446E+04
 <Sep29-2020> <15:27:47>     8 V(1)  0.1115444E+04
 <Sep29-2020> <15:27:47>     9 V(1)  0.1115442E+04
 <Sep29-2020> <15:27:48>    10 V(1)  0.1115441E+04
 <Sep29-2020> <15:27:48>   convergence reached
 <Sep29-2020> <15:27:48>     1 V(1)  0.1055495E+06
 <Sep29-2020> <15:27:48>     2 V(1)  0.8945078E+05
 <Sep29-2020> <15:27:49>     3 V(1)  0.8855996E+05
 <Sep29-2020> <15:27:49>     4 V(1)  0.8918503E+05
 <Sep29-2020> <15:27:50>     5 V(1)  0.8930394E+05
 <Sep29-2020> <15:27:50>     6 V(1)  0.8929658E+05
 <Sep29-2020> <15:27:51>     7 V(1)  0.8929272E+05
 <Sep29-2020> <15:27:51>     8 V(1)  0.8929240E+05
 <Sep29-2020> <15:27:52>     9 V(1)  0.8929203E+05
 <Sep29-2020> <15:27:52>    10 V(1)  0.8929203E+05
 <Sep29-2020> <15:27:52>   convergence reached
 <Sep29-2020> <15:27:53>     1 V(1)  0.6144589E+03
 <Sep29-2020> <15:27:53>     2 V(1)  0.4698565E+03
 <Sep29-2020> <15:27:53>     3 V(1)  0.4838874E+03
 <Sep29-2020> <15:27:54>     4 V(1)  0.4850666E+03
 <Sep29-2020> <15:27:54>     5 V(1)  0.4855897E+03
 <Sep29-2020> <15:27:54>     6 V(1)  0.4855973E+03
 <Sep29-2020> <15:27:55>     7 V(1)  0.4855991E+03
 <Sep29-2020> <15:27:55>     8 V(1)  0.4855979E+03
 <Sep29-2020> <15:27:56>     9 V(1)  0.4855969E+03
 <Sep29-2020> <15:27:56>    10 V(1)  0.4855967E+03
 <Sep29-2020> <15:27:56>   convergence reached
 <Sep29-2020> <15:27:56>     1 V(1)  0.2748758E+04
 <Sep29-2020> <15:27:57>     2 V(1)  0.2507414E+04
 <Sep29-2020> <15:27:57>     3 V(1)  0.2520150E+04
 <Sep29-2020> <15:27:58>     4 V(1)  0.2520575E+04
 <Sep29-2020> <15:27:58>     5 V(1)  0.2520575E+04
 <Sep29-2020> <15:27:58>   convergence reached
 <Sep29-2020> <15:27:59>     1 V(1)  0.1059000E+06
 <Sep29-2020> <15:27:59>     2 V(1)  0.8976004E+05
 <Sep29-2020> <15:28:00>     3 V(1)  0.8886242E+05
 <Sep29-2020> <15:28:00>     4 V(1)  0.8948880E+05
 <Sep29-2020> <15:28:01>     5 V(1)  0.8960159E+05
 <Sep29-2020> <15:28:01>     6 V(1)  0.8960469E+05
 <Sep29-2020> <15:28:01>     7 V(1)  0.8959666E+05
 <Sep29-2020> <15:28:02>     8 V(1)  0.8959613E+05
 <Sep29-2020> <15:28:02>     9 V(1)  0.8959588E+05
 <Sep29-2020> <15:28:03>    10 V(1)  0.8959573E+05
 <Sep29-2020> <15:28:03>    11 V(1)  0.8959575E+05
 <Sep29-2020> <15:28:03>   convergence reached
 <Sep29-2020> <15:28:04>     1 V(1)  0.1304239E+04
 <Sep29-2020> <15:28:04>     2 V(1)  0.1074734E+04
 <Sep29-2020> <15:28:05>     3 V(1)  0.1110392E+04
 <Sep29-2020> <15:28:05>     4 V(1)  0.1115981E+04
 <Sep29-2020> <15:28:06>     5 V(1)  0.1116878E+04
 <Sep29-2020> <15:28:06>     6 V(1)  0.1116978E+04
 <Sep29-2020> <15:28:06>     7 V(1)  0.1116976E+04
 <Sep29-2020> <15:28:07>     8 V(1)  0.1116974E+04
 <Sep29-2020> <15:28:07>     9 V(1)  0.1116972E+04
 <Sep29-2020> <15:28:08>    10 V(1)  0.1116972E+04
 <Sep29-2020> <15:28:08>   convergence reached
 <Sep29-2020> <15:28:08>  NORMAL TERMINATION
 <Sep29-2020> <15:28:08>  END
