

 Parallel Execution: Process Information
 ==============================================================================
 Rank   Node Name                              NodeID   MyNodeRank  NodeMaster
    0   magnesium.science.psu.edu                 0          0          0
    1   magnesium.science.psu.edu                 0          1         -1
    2   magnesium.science.psu.edu                 0          2         -1
    3   magnesium.science.psu.edu                 0          3         -1
    4   magnesium.science.psu.edu                 0          4         -1
    5   magnesium.science.psu.edu                 0          5         -1
 ==============================================================================


May use up to 7495MB of RAM as shared memory on node 0
 
TITLE None

ATOMS
1  C     0.02939839    4.00000000   -1.39939899
2  C    -1.19725398    4.00000000   -0.72387134
3  C    -1.22726617    4.00000000    0.67210202
4  C    -0.02939839    4.00000000    1.39939899
5  C     1.19725398    4.00000000    0.72387134
6  C     1.22726617    4.00000000   -0.67210202
7  H    -2.12875071    3.99999471   -1.29262705
8  H    -2.18185125    4.00000000    1.20145619
9  H    -0.05341272    4.00000529    2.49095720
10 H     2.12875071    3.99999471    1.29262176
11 H     2.18195125    4.00000000   -1.20145619
12 H     0.05331272    4.00000529   -2.49095720
END

XC
 gga BP86
end

DIMQM
 PIM
 ForceField LJ12-6
 Frequency
 localField
end

DIMPAR
 Ag
  rad 1.4445
  exp /amphome/mjb675/Program/dim3/dim/dielectrics/Ag_jc
 subend
 xyz
  /amphome/mjb675/workspace/capstone/ag/dimqm/ag2869_v2.xyz
 subend
end

symmetry nosym

aoresponse
 alda
 frequency 1 3.6 eV
 lifetime 0.0037
end

Fragments
H t21.H
C t21.C
End

 *******************************************************************************
 *                                                                             *
 *  -------------------------------------                                      *
 *   Amsterdam Density Functional  (ADF)         2019                          *
 *  -------------------------------------                                      *
 *                                               r75281 2019-06-03             *
 *                                                                             *
 *                                                                             *
 *                              =================                              *
 *                              |               |                              *
 *                              |     A D F     |                              *
 *                              |               |                              *
 *                              =================                              *
 *                                                                             *
 *                                                                             *
 *   Online information and documentation:  https://www.scm.com/support/       *
 *   E-mail:  support@scm.com   info@scm.com                                   *
 *                                                                             *
 *   Scientific publications using ADF results must be properly referenced     *
 *   See the User Manuals (or the web site) for recommended citations          *
 *   The terms and conditions of the End User License Agreement apply to       *
 *   the use of ADF, https://www.scm.com/license-terms/                        *
 *                                                                             *
 **********************  x86_64_linux_intel / intelmpi  ************************
 
 Licensed to: Prof. Lasse Jensen / Penn State University / University Park / PA  / USA
 SCM User ID: u8493
  
 ADF 2019  RunTime: Sep29-2020 17:12:45  Nodes: 1  Procs: 6

 Temporary files are created in /scratch/kid_0.2008346722


Communication costs MPI_COMM_WORLD:      0.392 usec per message,   0.0078 usec per 8-byte item
Communication costs for intra-node:      0.370 usec per message,   0.0076 usec per 8-byte item

 None



 ===========================
 A T T A C H E D   F I L E S
 ===========================
  



 ===============================
 M O D E L   P A R A M E T E R S
 ===============================
  
 DENSITY FUNCTIONAL POTENTIAL (scf)
    LDA:                               VWN                                      
    Gradient Corrections:              Becke88 Perdew86                        == Not Default ==

 SPIN  (restricted / unrestr.)
    Molecule:                          Restricted                               
    Fragments:                         Restricted                               

 OTHER ASPECTS
    Relativistic Corrections:          ---                                      

    Nuclear Charge Density Model:      Point Charge Nuclei                      
    Core Treatment:                    Frozen Orbital(s)                        

    Hyperfine or Zeeman Interaction:   ---                                      


 Fragment File(s)
 ----------------
 C:
         file : t21.C
         jobid: ADF 2019  RunTime: Sep29-2020 17:12:44  Nodes: 1  Procs: 1
         title: Carbon (TZP)
 H:
         file : t21.H
         jobid: ADF 2019  RunTime: Sep29-2020 17:12:44  Nodes: 1  Procs: 1
         title: Hydrogen (TZP)



                                        ************************************
                                        *  R U N   T Y P E : SINGLE POINT  *
                                        ************************************
  



 ===============
 G E O M E T R Y  ***  Planar Molecule  ***
 ===============
  

 ATOMS
 =====                            X Y Z                    CHARGE
                                (Angstrom)             Nucl     +Core       At.Mass
                       --------------------------    ----------------       -------
    1  C               0.0294    4.0000   -1.3994      6.00      6.00       12.0000
    2  C              -1.1973    4.0000   -0.7239      6.00      6.00       12.0000
    3  C              -1.2273    4.0000    0.6721      6.00      6.00       12.0000
    4  C              -0.0294    4.0000    1.3994      6.00      6.00       12.0000
    5  C               1.1973    4.0000    0.7239      6.00      6.00       12.0000
    6  C               1.2273    4.0000   -0.6721      6.00      6.00       12.0000
    7  H              -2.1288    4.0000   -1.2926      1.00      1.00        1.0078
    8  H              -2.1819    4.0000    1.2015      1.00      1.00        1.0078
    9  H              -0.0534    4.0000    2.4910      1.00      1.00        1.0078
   10  H               2.1288    4.0000    1.2926      1.00      1.00        1.0078
   11  H               2.1820    4.0000   -1.2015      1.00      1.00        1.0078
   12  H               0.0533    4.0000   -2.4910      1.00      1.00        1.0078


 FRAGMENTS
 =========                                     Atoms in this Fragment     Cart. coord.s (Angstrom)
                                               -------------------------------------------------------
    1  C                                                 1  C            0.0294    4.0000   -1.3994
    2  C                                                 2  C           -1.1973    4.0000   -0.7239
    3  C                                                 3  C           -1.2273    4.0000    0.6721
    4  C                                                 4  C           -0.0294    4.0000    1.3994
    5  C                                                 5  C            1.1973    4.0000    0.7239
    6  C                                                 6  C            1.2273    4.0000   -0.6721
    7  H                                                 7  H           -2.1288    4.0000   -1.2926
    8  H                                                 8  H           -2.1819    4.0000    1.2015
    9  H                                                 9  H           -0.0534    4.0000    2.4910
   10  H                                                10  H            2.1288    4.0000    1.2926
   11  H                                                11  H            2.1820    4.0000   -1.2015
   12  H                                                12  H            0.0533    4.0000   -2.4910


 Interatomic Distance Matrix (Angstrom)
 --------------------------------------

   1)     0.000
   2)     1.400   0.000
   3)     2.423   1.396   0.000
   4)     2.799   2.423   1.401   0.000
   5)     2.423   2.798   2.425   1.400   0.000
   6)     1.401   2.425   2.799   2.423   1.396   0.000
   7)     2.161   1.091   2.162   3.414   3.890   3.413   0.000
   8)     3.414   2.162   1.092   2.162   3.413   3.890   2.495   0.000
   9)     3.891   3.412   2.165   1.092   2.165   3.412   4.315   2.489   0.000
  10)     3.414   3.890   3.413   2.161   1.091   2.162   4.981   4.312   2.490   0.000
  11)     2.162   3.413   3.890   3.414   2.163   1.092   4.312   4.982   4.316   2.495
          0.000
  12)     1.092   2.165   3.412   3.891   3.412   2.165   2.489   4.316   4.983   4.315
          2.489   0.000

 Min. Distance =    1.0914
 Max. Distance =    4.9831



 =====================================
 S Y M M E T R Y ,   E L E C T R O N S
 =====================================
  
 Symmetry: NOSYM

 Irreducible Representations, including subspecies
 -------------------------------------------------
 A


 Configuration of Valence Electrons
 ==================================
 ( determined in the SCF procedure )

 Total:   42

 Net Charge: 0 (Nuclei minus Electrons)

 Aufbau principle for MO occupations will be applied through SCF cycle no.     150
 Thereafter, the program will assign electrons to MOs that are spatially
 similar to the occupied MOs in a "reference" cycle ("KeepOrbitals").
 The reference cycle is always the PREVIOUS cycle: it will evolve with
 the SCF procedure.
 
 ====================================================================================
 D I S C R E T E  I N T E R A C T I O N   M O D E L / Q U A N T U M   M E C A N I C S
 ====================================================================================
 
 The Discrete Interaction Model/Quantum Mechanics (DIM/QM) method is a hybrid QM/MM 
 model for studying the effects of metal nanoparticles molecular properties.
 References:
 -----------
 Seth M. Morton and Lasse Jensen, J. Chem. Phys., 133, 074103, (2010)
 Seth M. Morton and Lasse Jensen, J. Chem. Phys., 135, 134103, (2011)
 John L. Payton, Seth M. Morton and Lasse Jensen, J. Chem. Phys., 136, 214103, (2012)
 Seth M. Morton, Ph.D. thesis, Penn State University, PA, USA (2012)
 
 The Polarizability Interaction Model (PIM) variant of DIM/QM will be used
 
 Frequency-dependent parameters will be used
 Local electric field factors are included (NOT DEFAULT)
 DIM system total charge (ZERO DEFAULT):   0.0000
 Damping of the polarizabilities are included by the method of Mayer
 DIM equations will be solved with the direct solver
 The complex solver will be invoked
 
 Field Screening Type    : Gaussian Charge Distribution
 Field Screening Factor  :    1.0000
 
 Force Field Type        : Dispersion and Repulsion
 
 Dispersion Type         : Lennard-Jones Dispersion Part (-R^-6)
 Dispersion Factor       :    1.0000
 
 Repulsion Type          : Lennard-Jones Repulsion Part (R^-12)
 Repulsion Factor        :    1.0000
 Repulsion Wall          : OFF
 
 
 =============
 DIM/QM SYSTEM
 =============
 
 Units used              : atomic units
 Number of QM atoms      :   12
 Number of DIM atoms     : 2869
 
 =========
 QM-SYSTEM
 =========
 
     ATOM         X         Y         Z
 -------------------------------------------
     1  C       0.0556    7.5589   -2.6445
     2  C      -2.2625    7.5589   -1.3679
     3  C      -2.3192    7.5589    1.2701
     4  C      -0.0556    7.5589    2.6445
     5  C       2.2625    7.5589    1.3679
     6  C       2.3192    7.5589   -1.2701
     7  H      -4.0228    7.5589   -2.4427
     8  H      -4.1231    7.5589    2.2704
     9  H      -0.1009    7.5589    4.7072
    10  H       4.0228    7.5589    2.4427
    11  H       4.1233    7.5589   -2.2704
    12  H       0.1007    7.5589   -4.7072
 
 ==========
 DIM-SYSTEM
 ==========
 
     ATOM         X         Y         Z
 -------------------------------------------
    13  Ag     -0.0539  -49.1113   -0.0003
    14  Ag      4.8319  -46.6751   -0.0003
    15  Ag      9.7176  -44.2389   -0.0003
    16  Ag     14.6033  -41.8028   -0.0003
    17  Ag     19.4890  -39.3666   -0.0003
    18  Ag     24.3748  -36.9304   -0.0003
    19  Ag     29.2605  -34.4943   -0.0003
    20  Ag     34.1462  -32.0581   -0.0003
    21  Ag     39.0319  -29.6219   -0.0003
    22  Ag     43.9177  -27.1858   -0.0003
    23  Ag     -0.0479  -43.6545   -0.0003
    24  Ag      4.8378  -41.2183   -0.0003
    25  Ag      9.7236  -38.7821   -0.0003
    26  Ag     14.6093  -36.3460   -0.0003
    27  Ag     19.4950  -33.9098   -0.0003
    28  Ag     24.3808  -31.4736   -0.0003
    29  Ag     29.2665  -29.0375   -0.0002
    30  Ag     34.1522  -26.6013   -0.0002
    31  Ag     39.0379  -24.1651   -0.0002
    32  Ag     -0.0419  -38.1977   -0.0003
    33  Ag      4.8438  -35.7615   -0.0003
    34  Ag      9.7296  -33.3253   -0.0002
    35  Ag     14.6153  -30.8892   -0.0002
    36  Ag     19.5010  -28.4530   -0.0002
    37  Ag     24.3867  -26.0168   -0.0002
    38  Ag     29.2725  -23.5806   -0.0002
    39  Ag     34.1582  -21.1445   -0.0002
    40  Ag     -0.0359  -32.7408   -0.0002
    41  Ag      4.8498  -30.3047   -0.0002
    42  Ag      9.7355  -27.8685   -0.0002
    43  Ag     14.6213  -25.4323   -0.0002
    44  Ag     19.5070  -22.9962   -0.0002
    45  Ag     24.3927  -20.5600   -0.0002
    46  Ag     29.2785  -18.1238   -0.0002
    47  Ag     -0.0299  -27.2840   -0.0002
    48  Ag      4.8558  -24.8479   -0.0002
    49  Ag      9.7415  -22.4117   -0.0002
    50  Ag     14.6273  -19.9755   -0.0002
    51  Ag     19.5130  -17.5394   -0.0002
    52  Ag     24.3987  -15.1032   -0.0001
    53  Ag     -0.0239  -21.8272   -0.0001
    54  Ag      4.8618  -19.3911   -0.0001
    55  Ag      9.7475  -16.9549   -0.0001
    56  Ag     14.6332  -14.5187   -0.0001
    57  Ag     19.5190  -12.0826   -0.0001
    58  Ag     -0.0180  -16.3704   -0.0001
    59  Ag      4.8678  -13.9343   -0.0001
    60  Ag      9.7535  -11.4981   -0.0001
    61  Ag     14.6392   -9.0619   -0.0001
    62  Ag     -0.0120  -10.9136   -0.0001
    63  Ag      4.8738   -8.4774   -0.0001
    64  Ag      9.7595   -6.0413   -0.0001
    65  Ag     -0.0060   -5.4568   -0.0000
    66  Ag      4.8797   -3.0206   -0.0000
    67  Ag      0.0000    0.0000    0.0000
    68  Ag      1.4626  -46.6592    4.6347
    69  Ag      6.3483  -44.2231    4.6347
    70  Ag     11.2340  -41.7869    4.6347
    71  Ag     16.1198  -39.3507    4.6348
    72  Ag     21.0055  -36.9146    4.6348
    73  Ag     25.8912  -34.4784    4.6348
    74  Ag     30.7769  -32.0422    4.6348
    75  Ag     35.6627  -29.6061    4.6348
    76  Ag     40.5484  -27.1699    4.6348
    77  Ag      1.4686  -41.2024    4.6348
    78  Ag      6.3543  -38.7663    4.6348
    79  Ag     11.2400  -36.3301    4.6348
    80  Ag     16.1257  -33.8939    4.6348
    81  Ag     21.0115  -31.4578    4.6348
    82  Ag     25.8972  -29.0216    4.6348
    83  Ag     30.7829  -26.5854    4.6348
    84  Ag     35.6687  -24.1492    4.6348
    85  Ag      1.4745  -35.7456    4.6348
    86  Ag      6.3603  -33.3094    4.6348
    87  Ag     11.2460  -30.8733    4.6348
    88  Ag     16.1317  -28.4371    4.6348
    89  Ag     21.0175  -26.0009    4.6348
    90  Ag     25.9032  -23.5648    4.6348
    91  Ag     30.7889  -21.1286    4.6349
    92  Ag      1.4805  -30.2888    4.6348
    93  Ag      6.3663  -27.8526    4.6348
    94  Ag     11.2520  -25.4165    4.6349
    95  Ag     16.1377  -22.9803    4.6349
    96  Ag     21.0234  -20.5441    4.6349
    97  Ag     25.9092  -18.1080    4.6349
    98  Ag      1.4865  -24.8320    4.6349
    99  Ag      6.3722  -22.3958    4.6349
   100  Ag     11.2580  -19.9597    4.6349
   101  Ag     16.1437  -17.5235    4.6349
   102  Ag     21.0294  -15.0873    4.6349
   103  Ag      1.4925  -19.3752    4.6349
   104  Ag      6.3782  -16.9390    4.6349
   105  Ag     11.2640  -14.5029    4.6349
   106  Ag     16.1497  -12.0667    4.6349
   107  Ag      1.4985  -13.9184    4.6349
   108  Ag      6.3842  -11.4822    4.6350
   109  Ag     11.2699   -9.0460    4.6350
   110  Ag      1.5045   -8.4616    4.6350
   111  Ag      6.3902   -6.0254    4.6350
   112  Ag      1.5105   -3.0048    4.6350
   113  Ag      2.9790  -44.2072    9.2698
   114  Ag      7.8647  -41.7710    9.2698
   115  Ag     12.7505  -39.3349    9.2698
   116  Ag     17.6362  -36.8987    9.2698
   117  Ag     22.5219  -34.4625    9.2698
   118  Ag     27.4077  -32.0264    9.2698
   119  Ag     32.2934  -29.5902    9.2698
   120  Ag     37.1791  -27.1540    9.2698
   121  Ag      2.9850  -38.7504    9.2698
   122  Ag      7.8707  -36.3142    9.2698
   123  Ag     12.7565  -33.8780    9.2698
   124  Ag     17.6422  -31.4419    9.2699
   125  Ag     22.5279  -29.0057    9.2699
   126  Ag     27.4136  -26.5695    9.2699
   127  Ag     32.2994  -24.1334    9.2699
   128  Ag      2.9910  -33.2936    9.2699
   129  Ag      7.8767  -30.8574    9.2699
   130  Ag     12.7624  -28.4212    9.2699
   131  Ag     17.6482  -25.9851    9.2699
   132  Ag     22.5339  -23.5489    9.2699
   133  Ag     27.4196  -21.1127    9.2699
   134  Ag      2.9970  -27.8368    9.2699
   135  Ag      7.8827  -25.4006    9.2699
   136  Ag     12.7684  -22.9644    9.2699
   137  Ag     17.6542  -20.5283    9.2699
   138  Ag     22.5399  -18.0921    9.2699
   139  Ag      3.0030  -22.3800    9.2699
   140  Ag      7.8887  -19.9438    9.2699
   141  Ag     12.7744  -17.5076    9.2700
   142  Ag     17.6601  -15.0715    9.2700
   143  Ag      3.0089  -16.9232    9.2700
   144  Ag      7.8947  -14.4870    9.2700
   145  Ag     12.7804  -12.0508    9.2700
   146  Ag      3.0149  -11.4663    9.2700
   147  Ag      7.9007   -9.0302    9.2700
   148  Ag      3.0209   -6.0095    9.2700
   149  Ag      4.4955  -41.7552   13.9048
   150  Ag      9.3812  -39.3190   13.9049
   151  Ag     14.2669  -36.8828   13.9049
   152  Ag     19.1526  -34.4466   13.9049
   153  Ag     24.0384  -32.0105   13.9049
   154  Ag     28.9241  -29.5743   13.9049
   155  Ag     33.8098  -27.1381   13.9049
   156  Ag      4.5014  -36.2983   13.9049
   157  Ag      9.3872  -33.8622   13.9049
   158  Ag     14.2729  -31.4260   13.9049
   159  Ag     19.1586  -28.9898   13.9049
   160  Ag     24.0444  -26.5537   13.9049
   161  Ag     28.9301  -24.1175   13.9049
   162  Ag      4.5074  -30.8415   13.9049
   163  Ag      9.3932  -28.4054   13.9049
   164  Ag     14.2789  -25.9692   13.9049
   165  Ag     19.1646  -23.5330   13.9049
   166  Ag     24.0503  -21.0969   13.9050
   167  Ag      4.5134  -25.3847   13.9050
   168  Ag      9.3991  -22.9486   13.9050
   169  Ag     14.2849  -20.5124   13.9050
   170  Ag     19.1706  -18.0762   13.9050
   171  Ag      4.5194  -19.9279   13.9050
   172  Ag      9.4051  -17.4918   13.9050
   173  Ag     14.2909  -15.0556   13.9050
   174  Ag      4.5254  -14.4711   13.9050
   175  Ag      9.4111  -12.0349   13.9050
   176  Ag      4.5314   -9.0143   13.9051
   177  Ag      6.0119  -39.3031   18.5399
   178  Ag     10.8976  -36.8669   18.5399
   179  Ag     15.7834  -34.4308   18.5399
   180  Ag     20.6691  -31.9946   18.5399
   181  Ag     25.5548  -29.5584   18.5399
   182  Ag     30.4405  -27.1223   18.5400
   183  Ag      6.0179  -33.8463   18.5399
   184  Ag     10.9036  -31.4101   18.5400
   185  Ag     15.7893  -28.9740   18.5400
   186  Ag     20.6751  -26.5378   18.5400
   187  Ag     25.5608  -24.1016   18.5400
   188  Ag      6.0239  -28.3895   18.5400
   189  Ag     10.9096  -25.9533   18.5400
   190  Ag     15.7953  -23.5172   18.5400
   191  Ag     20.6811  -21.0810   18.5400
   192  Ag      6.0299  -22.9327   18.5400
   193  Ag     10.9156  -20.4965   18.5400
   194  Ag     15.8013  -18.0604   18.5400
   195  Ag      6.0358  -17.4759   18.5401
   196  Ag     10.9216  -15.0397   18.5401
   197  Ag      6.0418  -12.0191   18.5401
   198  Ag      7.5283  -36.8511   23.1750
   199  Ag     12.4141  -34.4149   23.1750
   200  Ag     17.2998  -31.9787   23.1750
   201  Ag     22.1855  -29.5426   23.1750
   202  Ag     27.0713  -27.1064   23.1750
   203  Ag      7.5343  -31.3943   23.1750
   204  Ag     12.4201  -28.9581   23.1750
   205  Ag     17.3058  -26.5219   23.1750
   206  Ag     22.1915  -24.0858   23.1750
   207  Ag      7.5403  -25.9375   23.1750
   208  Ag     12.4260  -23.5013   23.1751
   209  Ag     17.3118  -21.0651   23.1751
   210  Ag      7.5463  -20.4806   23.1751
   211  Ag     12.4320  -18.0445   23.1751
   212  Ag      7.5523  -15.0238   23.1751
   213  Ag      9.0448  -34.3990   27.8100
   214  Ag     13.9305  -31.9629   27.8100
   215  Ag     18.8162  -29.5267   27.8100
   216  Ag     23.7020  -27.0905   27.8101
   217  Ag      9.0508  -28.9422   27.8101
   218  Ag     13.9365  -26.5061   27.8101
   219  Ag     18.8222  -24.0699   27.8101
   220  Ag      9.0568  -23.4854   27.8101
   221  Ag     13.9425  -21.0492   27.8101
   222  Ag      9.0628  -18.0286   27.8101
   223  Ag     10.5612  -31.9470   32.4451
   224  Ag     15.4470  -29.5108   32.4451
   225  Ag     20.3327  -27.0747   32.4451
   226  Ag     10.5672  -26.4902   32.4451
   227  Ag     15.4530  -24.0540   32.4451
   228  Ag     10.5732  -21.0334   32.4452
   229  Ag     12.0777  -29.4949   37.0802
   230  Ag     16.9634  -27.0588   37.0802
   231  Ag     12.0837  -24.0381   37.0802
   232  Ag     13.5941  -27.0429   41.7152
   233  Ag     -3.9918  -46.6581    2.8713
   234  Ag     -2.4729  -44.2110    7.5064
   235  Ag     -0.9540  -41.7638   12.1415
   236  Ag      0.5648  -39.3167   16.7765
   237  Ag      2.0837  -36.8695   21.4116
   238  Ag      3.6026  -34.4223   26.0466
   239  Ag      5.1215  -31.9752   30.6817
   240  Ag      6.6404  -29.5280   35.3168
   241  Ag      8.1592  -27.0809   39.9518
   242  Ag     -3.9858  -41.2013    2.8714
   243  Ag     -2.4669  -38.7542    7.5064
   244  Ag     -0.9481  -36.3070   12.1415
   245  Ag      0.5708  -33.8598   16.7766
   246  Ag      2.0897  -31.4127   21.4116
   247  Ag      3.6086  -28.9655   26.0467
   248  Ag      5.1275  -26.5184   30.6817
   249  Ag      6.6463  -24.0712   35.3168
   250  Ag     -3.9798  -35.7445    2.8714
   251  Ag     -2.4610  -33.2973    7.5065
   252  Ag     -0.9421  -30.8502   12.1415
   253  Ag      0.5768  -28.4030   16.7766
   254  Ag      2.0957  -25.9559   21.4117
   255  Ag      3.6146  -23.5087   26.0467
   256  Ag      5.1335  -21.0616   30.6818
   257  Ag     -3.9738  -30.2877    2.8715
   258  Ag     -2.4550  -27.8405    7.5065
   259  Ag     -0.9361  -25.3934   12.1416
   260  Ag      0.5828  -22.9462   16.7766
   261  Ag      2.1017  -20.4991   21.4117
   262  Ag      3.6206  -18.0519   26.0468
   263  Ag     -3.9679  -24.8309    2.8715
   264  Ag     -2.4490  -22.3837    7.5066
   265  Ag     -0.9301  -19.9366   12.1416
   266  Ag      0.5888  -17.4894   16.7767
   267  Ag      2.1077  -15.0423   21.4117
   268  Ag     -3.9619  -19.3741    2.8715
   269  Ag     -2.4430  -16.9269    7.5066
   270  Ag     -0.9241  -14.4798   12.1417
   271  Ag      0.5948  -12.0326   16.7767
   272  Ag     -3.9559  -13.9173    2.8716
   273  Ag     -2.4370  -11.4701    7.5066
   274  Ag     -0.9181   -9.0230   12.1417
   275  Ag     -3.9499   -8.4605    2.8716
   276  Ag     -2.4310   -6.0133    7.5067
   277  Ag     -3.9439   -3.0037    2.8716
   278  Ag     -7.9297  -44.2050    5.7430
   279  Ag     -6.4109  -41.7578   10.3781
   280  Ag     -4.8920  -39.3107   15.0131
   281  Ag     -3.3731  -36.8635   19.6482
   282  Ag     -1.8542  -34.4163   24.2833
   283  Ag     -0.3353  -31.9692   28.9183
   284  Ag      1.1835  -29.5220   33.5534
   285  Ag      2.7024  -27.0749   38.1884
   286  Ag     -7.9237  -38.7482    5.7431
   287  Ag     -6.4049  -36.3010   10.3781
   288  Ag     -4.8860  -33.8538   15.0132
   289  Ag     -3.3671  -31.4067   19.6482
   290  Ag     -1.8482  -28.9595   24.2833
   291  Ag     -0.3293  -26.5124   28.9184
   292  Ag      1.1895  -24.0652   33.5534
   293  Ag     -7.9178  -33.2914    5.7431
   294  Ag     -6.3989  -30.8442   10.3782
   295  Ag     -4.8800  -28.3970   15.0132
   296  Ag     -3.3611  -25.9499   19.6483
   297  Ag     -1.8422  -23.5027   24.2833
   298  Ag     -0.3234  -21.0556   28.9184
   299  Ag     -7.9118  -27.8345    5.7431
   300  Ag     -6.3929  -25.3874   10.3782
   301  Ag     -4.8740  -22.9402   15.0133
   302  Ag     -3.3551  -20.4931   19.6483
   303  Ag     -1.8363  -18.0459   24.2834
   304  Ag     -7.9058  -22.3777    5.7432
   305  Ag     -6.3869  -19.9306   10.3782
   306  Ag     -4.8680  -17.4834   15.0133
   307  Ag     -3.3491  -15.0363   19.6484
   308  Ag     -7.8998  -16.9209    5.7432
   309  Ag     -6.3809  -14.4738   10.3783
   310  Ag     -4.8620  -12.0266   15.0133
   311  Ag     -7.8938  -11.4641    5.7432
   312  Ag     -6.3749   -9.0170   10.3783
   313  Ag     -7.8878   -6.0073    5.7433
   314  Ag    -11.8677  -41.7518    8.6147
   315  Ag    -10.3488  -39.3047   13.2498
   316  Ag     -8.8299  -36.8575   17.8848
   317  Ag     -7.3110  -34.4103   22.5199
   318  Ag     -5.7921  -31.9632   27.1549
   319  Ag     -4.2733  -29.5160   31.7900
   320  Ag     -2.7544  -27.0689   36.4251
   321  Ag    -11.8617  -36.2950    8.6147
   322  Ag    -10.3428  -33.8479   13.2498
   323  Ag     -8.8239  -31.4007   17.8849
   324  Ag     -7.3050  -28.9535   22.5199
   325  Ag     -5.7862  -26.5064   27.1550
   326  Ag     -4.2673  -24.0592   31.7900
   327  Ag    -11.8557  -30.8382    8.6148
   328  Ag    -10.3368  -28.3910   13.2498
   329  Ag     -8.8179  -25.9439   17.8849
   330  Ag     -7.2991  -23.4967   22.5200
   331  Ag     -5.7802  -21.0496   27.1550
   332  Ag    -11.8497  -25.3814    8.6148
   333  Ag    -10.3308  -22.9342   13.2499
   334  Ag     -8.8119  -20.4871   17.8849
   335  Ag     -7.2931  -18.0399   22.5200
   336  Ag    -11.8437  -19.9246    8.6148
   337  Ag    -10.3248  -17.4774   13.2499
   338  Ag     -8.8060  -15.0303   17.8850
   339  Ag    -11.8377  -14.4678    8.6149
   340  Ag    -10.3189  -12.0206   13.2499
   341  Ag    -11.8317   -9.0110    8.6149
   342  Ag    -15.8056  -39.2987   11.4864
   343  Ag    -14.2867  -36.8515   16.1214
   344  Ag    -12.7678  -34.4044   20.7565
   345  Ag    -11.2490  -31.9572   25.3916
   346  Ag     -9.7301  -29.5100   30.0266
   347  Ag     -8.2112  -27.0629   34.6617
   348  Ag    -15.7996  -33.8419   11.4864
   349  Ag    -14.2807  -31.3947   16.1215
   350  Ag    -12.7618  -28.9475   20.7565
   351  Ag    -11.2430  -26.5004   25.3916
   352  Ag     -9.7241  -24.0532   30.0267
   353  Ag    -15.7936  -28.3850   11.4864
   354  Ag    -14.2747  -25.9379   16.1215
   355  Ag    -12.7559  -23.4907   20.7566
   356  Ag    -11.2370  -21.0436   25.3916
   357  Ag    -15.7876  -22.9282   11.4865
   358  Ag    -14.2688  -20.4811   16.1215
   359  Ag    -12.7499  -18.0339   20.7566
   360  Ag    -15.7817  -17.4714   11.4865
   361  Ag    -14.2628  -15.0243   16.1216
   362  Ag    -15.7757  -12.0146   11.4866
   363  Ag    -19.7435  -36.8455   14.3581
   364  Ag    -18.2246  -34.3984   18.9931
   365  Ag    -16.7058  -31.9512   23.6282
   366  Ag    -15.1869  -29.5040   28.2632
   367  Ag    -13.6680  -27.0569   32.8983
   368  Ag    -19.7375  -31.3887   14.3581
   369  Ag    -18.2187  -28.9415   18.9932
   370  Ag    -16.6998  -26.4944   23.6282
   371  Ag    -15.1809  -24.0472   28.2633
   372  Ag    -19.7316  -25.9319   14.3581
   373  Ag    -18.2127  -23.4847   18.9932
   374  Ag    -16.6938  -21.0376   23.6282
   375  Ag    -19.7256  -20.4751   14.3582
   376  Ag    -18.2067  -18.0279   18.9932
   377  Ag    -19.7196  -15.0183   14.3582
   378  Ag    -23.6815  -34.3924   17.2297
   379  Ag    -22.1626  -31.9452   21.8648
   380  Ag    -20.6437  -29.4980   26.4999
   381  Ag    -19.1248  -27.0509   31.1349
   382  Ag    -23.6755  -28.9355   17.2298
   383  Ag    -22.1566  -26.4884   21.8648
   384  Ag    -20.6377  -24.0412   26.4999
   385  Ag    -23.6695  -23.4787   17.2298
   386  Ag    -22.1506  -21.0316   21.8649
   387  Ag    -23.6635  -18.0219   17.2298
   388  Ag    -27.6194  -31.9392   20.1014
   389  Ag    -26.1005  -29.4920   24.7365
   390  Ag    -24.5816  -27.0449   29.3715
   391  Ag    -27.6134  -26.4824   20.1014
   392  Ag    -26.0945  -24.0352   24.7365
   393  Ag    -27.6074  -21.0256   20.1015
   394  Ag    -31.5573  -29.4861   22.9731
   395  Ag    -30.0384  -27.0389   27.6081
   396  Ag    -31.5513  -24.0292   22.9731
   397  Ag    -35.4952  -27.0329   25.8448
   398  Ag      1.4570  -46.6725   -4.6422
   399  Ag      6.3427  -44.2364   -4.6422
   400  Ag     11.2285  -41.8002   -4.6421
   401  Ag     16.1142  -39.3640   -4.6421
   402  Ag     20.9999  -36.9279   -4.6421
   403  Ag     25.8857  -34.4917   -4.6421
   404  Ag     30.7714  -32.0555   -4.6421
   405  Ag     35.6571  -29.6194   -4.6421
   406  Ag     40.5428  -27.1832   -4.6421
   407  Ag      2.9679  -44.2338   -9.2840
   408  Ag      7.8536  -41.7976   -9.2840
   409  Ag     12.7394  -39.3615   -9.2840
   410  Ag     17.6251  -36.9253   -9.2840
   411  Ag     22.5108  -34.4891   -9.2840
   412  Ag     27.3966  -32.0530   -9.2839
   413  Ag     32.2823  -29.6168   -9.2839
   414  Ag     37.1680  -27.1806   -9.2839
   415  Ag      4.4788  -41.7951  -13.9258
   416  Ag      9.3645  -39.3589  -13.9258
   417  Ag     14.2503  -36.9227  -13.9258
   418  Ag     19.1360  -34.4866  -13.9258
   419  Ag     24.0217  -32.0504  -13.9258
   420  Ag     28.9074  -29.6142  -13.9258
   421  Ag     33.7932  -27.1781  -13.9258
   422  Ag      5.9897  -39.3563  -18.5676
   423  Ag     10.8754  -36.9202  -18.5676
   424  Ag     15.7612  -34.4840  -18.5676
   425  Ag     20.6469  -32.0478  -18.5676
   426  Ag     25.5326  -29.6117  -18.5676
   427  Ag     30.4183  -27.1755  -18.5676
   428  Ag      7.5006  -36.9176  -23.2095
   429  Ag     12.3863  -34.4814  -23.2095
   430  Ag     17.2721  -32.0453  -23.2095
   431  Ag     22.1578  -29.6091  -23.2094
   432  Ag     27.0435  -27.1729  -23.2094
   433  Ag      9.0115  -34.4789  -27.8513
   434  Ag     13.8972  -32.0427  -27.8513
   435  Ag     18.7829  -29.6065  -27.8513
   436  Ag     23.6687  -27.1704  -27.8513
   437  Ag     10.5224  -32.0401  -32.4931
   438  Ag     15.4081  -29.6040  -32.4931
   439  Ag     20.2938  -27.1678  -32.4931
   440  Ag     12.0333  -29.6014  -37.1349
   441  Ag     16.9190  -27.1652  -37.1349
   442  Ag     13.5442  -27.1627  -41.7768
   443  Ag      1.4744  -41.2140   -4.6533
   444  Ag      6.3601  -38.7778   -4.6532
   445  Ag     11.2458  -36.3417   -4.6532
   446  Ag     16.1315  -33.9055   -4.6532
   447  Ag     21.0173  -31.4693   -4.6532
   448  Ag     25.9030  -29.0332   -4.6532
   449  Ag     30.7887  -26.5970   -4.6532
   450  Ag     35.6744  -24.1608   -4.6532
   451  Ag      2.9852  -38.7753   -9.2951
   452  Ag      7.8710  -36.3391   -9.2951
   453  Ag     12.7567  -33.9029   -9.2951
   454  Ag     17.6424  -31.4668   -9.2951
   455  Ag     22.5282  -29.0306   -9.2950
   456  Ag     27.4139  -26.5944   -9.2950
   457  Ag     32.2996  -24.1583   -9.2950
   458  Ag      4.4961  -36.3365  -13.9369
   459  Ag      9.3819  -33.9004  -13.9369
   460  Ag     14.2676  -31.4642  -13.9369
   461  Ag     19.1533  -29.0280  -13.9369
   462  Ag     24.0391  -26.5919  -13.9369
   463  Ag     28.9248  -24.1557  -13.9369
   464  Ag      6.0070  -33.8978  -18.5787
   465  Ag     10.8928  -31.4616  -18.5787
   466  Ag     15.7785  -29.0255  -18.5787
   467  Ag     20.6642  -26.5893  -18.5787
   468  Ag     25.5499  -24.1531  -18.5787
   469  Ag      7.5179  -31.4591  -23.2206
   470  Ag     12.4037  -29.0229  -23.2205
   471  Ag     17.2894  -26.5867  -23.2205
   472  Ag     22.1751  -24.1506  -23.2205
   473  Ag      9.0288  -29.0203  -27.8624
   474  Ag     13.9146  -26.5842  -27.8624
   475  Ag     18.8003  -24.1480  -27.8624
   476  Ag     10.5397  -26.5816  -32.5042
   477  Ag     15.4254  -24.1454  -32.5042
   478  Ag     12.0506  -24.1429  -37.1460
   479  Ag      1.4917  -35.7555   -4.6643
   480  Ag      6.3774  -33.3193   -4.6643
   481  Ag     11.2631  -30.8832   -4.6643
   482  Ag     16.1489  -28.4470   -4.6643
   483  Ag     21.0346  -26.0108   -4.6643
   484  Ag     25.9203  -23.5746   -4.6643
   485  Ag     30.8061  -21.1385   -4.6643
   486  Ag      3.0026  -33.3168   -9.3062
   487  Ag      7.8883  -30.8806   -9.3062
   488  Ag     12.7740  -28.4444   -9.3062
   489  Ag     17.6598  -26.0083   -9.3061
   490  Ag     22.5455  -23.5721   -9.3061
   491  Ag     27.4312  -21.1359   -9.3061
   492  Ag      4.5135  -30.8780  -13.9480
   493  Ag      9.3992  -28.4419  -13.9480
   494  Ag     14.2849  -26.0057  -13.9480
   495  Ag     19.1707  -23.5695  -13.9480
   496  Ag     24.0564  -21.1333  -13.9480
   497  Ag      6.0244  -28.4393  -18.5898
   498  Ag     10.9101  -26.0031  -18.5898
   499  Ag     15.7958  -23.5669  -18.5898
   500  Ag     20.6816  -21.1308  -18.5898
   501  Ag      7.5353  -26.0005  -23.2316
   502  Ag     12.4210  -23.5644  -23.2316
   503  Ag     17.3067  -21.1282  -23.2316
   504  Ag      9.0462  -23.5618  -27.8735
   505  Ag     13.9319  -21.1256  -27.8735
   506  Ag     10.5570  -21.1231  -32.5153
   507  Ag      1.5090  -30.2970   -4.6754
   508  Ag      6.3947  -27.8608   -4.6754
   509  Ag     11.2805  -25.4246   -4.6754
   510  Ag     16.1662  -22.9885   -4.6754
   511  Ag     21.0519  -20.5523   -4.6754
   512  Ag     25.9377  -18.1161   -4.6754
   513  Ag      3.0199  -27.8582   -9.3173
   514  Ag      7.9056  -25.4221   -9.3173
   515  Ag     12.7914  -22.9859   -9.3172
   516  Ag     17.6771  -20.5497   -9.3172
   517  Ag     22.5628  -18.1136   -9.3172
   518  Ag      4.5308  -25.4195  -13.9591
   519  Ag      9.4165  -22.9833  -13.9591
   520  Ag     14.3023  -20.5472  -13.9591
   521  Ag     19.1880  -18.1110  -13.9591
   522  Ag      6.0417  -22.9808  -18.6009
   523  Ag     10.9274  -20.5446  -18.6009
   524  Ag     15.8132  -18.1084  -18.6009
   525  Ag      7.5526  -20.5420  -23.2427
   526  Ag     12.4383  -18.1059  -23.2427
   527  Ag      9.0635  -18.1033  -27.8846
   528  Ag      1.5263  -24.8384   -4.6865
   529  Ag      6.4121  -22.4023   -4.6865
   530  Ag     11.2978  -19.9661   -4.6865
   531  Ag     16.1835  -17.5299   -4.6865
   532  Ag     21.0693  -15.0938   -4.6865
   533  Ag      3.0372  -22.3997   -9.3284
   534  Ag      7.9230  -19.9635   -9.3283
   535  Ag     12.8087  -17.5274   -9.3283
   536  Ag     17.6944  -15.0912   -9.3283
   537  Ag      4.5481  -19.9610  -13.9702
   538  Ag      9.4339  -17.5248  -13.9702
   539  Ag     14.3196  -15.0886  -13.9702
   540  Ag      6.0590  -17.5222  -18.6120
   541  Ag     10.9448  -15.0861  -18.6120
   542  Ag      7.5699  -15.0835  -23.2538
   543  Ag      1.5437  -19.3799   -4.6976
   544  Ag      6.4294  -16.9438   -4.6976
   545  Ag     11.3151  -14.5076   -4.6976
   546  Ag     16.2009  -12.0714   -4.6976
   547  Ag      3.0546  -16.9412   -9.3394
   548  Ag      7.9403  -14.5050   -9.3394
   549  Ag     12.8260  -12.0689   -9.3394
   550  Ag      4.5655  -14.5025  -13.9813
   551  Ag      9.4512  -12.0663  -13.9813
   552  Ag      6.0764  -12.0637  -18.6231
   553  Ag      1.5610  -13.9214   -4.7087
   554  Ag      6.4467  -11.4852   -4.7087
   555  Ag     11.3325   -9.0491   -4.7087
   556  Ag      3.0719  -11.4827   -9.3505
   557  Ag      7.9576   -9.0465   -9.3505
   558  Ag      4.5828   -9.0439  -13.9924
   559  Ag      1.5783   -8.4629   -4.7198
   560  Ag      6.4641   -6.0267   -4.7198
   561  Ag      3.0892   -6.0241   -9.3616
   562  Ag      1.5957   -3.0044   -4.7309
   563  Ag     -3.9918  -46.6582   -2.8721
   564  Ag     -3.9737  -41.2011   -2.8780
   565  Ag     -3.9556  -35.7441   -2.8839
   566  Ag     -3.9375  -30.2871   -2.8898
   567  Ag     -3.9194  -24.8301   -2.8957
   568  Ag     -3.9014  -19.3731   -2.9016
   569  Ag     -3.8833  -13.9161   -2.9075
   570  Ag     -3.8652   -8.4591   -2.9134
   571  Ag     -3.8471   -3.0021   -2.9193
   572  Ag     -2.4809  -44.2194   -7.5139
   573  Ag     -2.4628  -38.7624   -7.5198
   574  Ag     -2.4447  -33.3054   -7.5257
   575  Ag     -2.4266  -27.8484   -7.5316
   576  Ag     -2.4085  -22.3914   -7.5375
   577  Ag     -2.3905  -16.9344   -7.5434
   578  Ag     -2.3724  -11.4773   -7.5493
   579  Ag     -2.3543   -6.0203   -7.5552
   580  Ag     -0.9700  -41.7807  -12.1557
   581  Ag     -0.9519  -36.3237  -12.1616
   582  Ag     -0.9338  -30.8667  -12.1675
   583  Ag     -0.9157  -25.4096  -12.1734
   584  Ag     -0.8976  -19.9526  -12.1793
   585  Ag     -0.8796  -14.4956  -12.1852
   586  Ag     -0.8615   -9.0386  -12.1911
   587  Ag      0.5409  -39.3420  -16.7976
   588  Ag      0.5590  -33.8849  -16.8035
   589  Ag      0.5771  -28.4279  -16.8094
   590  Ag      0.5952  -22.9709  -16.8153
   591  Ag      0.6132  -17.5139  -16.8212
   592  Ag      0.6313  -12.0569  -16.8271
   593  Ag      2.0518  -36.9032  -21.4394
   594  Ag      2.0699  -31.4462  -21.4453
   595  Ag      2.0880  -25.9892  -21.4512
   596  Ag      2.1061  -20.5322  -21.4571
   597  Ag      2.1241  -15.0752  -21.4630
   598  Ag      3.5627  -34.4645  -26.0812
   599  Ag      3.5808  -29.0075  -26.0871
   600  Ag      3.5989  -23.5505  -26.0930
   601  Ag      3.6170  -18.0934  -26.0989
   602  Ag      5.0736  -32.0257  -30.7230
   603  Ag      5.0917  -26.5687  -30.7289
   604  Ag      5.1098  -21.1117  -30.7348
   605  Ag      6.5845  -29.5870  -35.3649
   606  Ag      6.6026  -24.1300  -35.3708
   607  Ag      8.0954  -27.1483  -40.0067
   608  Ag     -7.9297  -44.2050   -5.7438
   609  Ag     -7.9116  -38.7480   -5.7497
   610  Ag     -7.8935  -33.2910   -5.7556
   611  Ag     -7.8754  -27.8340   -5.7615
   612  Ag     -7.8573  -22.3770   -5.7674
   613  Ag     -7.8393  -16.9200   -5.7733
   614  Ag     -7.8212  -11.4630   -5.7792
   615  Ag     -7.8031   -6.0060   -5.7851
   616  Ag     -6.4188  -41.7663  -10.3857
   617  Ag     -6.4007  -36.3093  -10.3916
   618  Ag     -6.3826  -30.8523  -10.3975
   619  Ag     -6.3645  -25.3953  -10.4034
   620  Ag     -6.3464  -19.9383  -10.4093
   621  Ag     -6.3284  -14.4812  -10.4152
   622  Ag     -6.3103   -9.0242  -10.4211
   623  Ag     -4.9079  -39.3276  -15.0275
   624  Ag     -4.8898  -33.8706  -15.0334
   625  Ag     -4.8717  -28.4135  -15.0393
   626  Ag     -4.8536  -22.9565  -15.0452
   627  Ag     -4.8355  -17.4995  -15.0511
   628  Ag     -4.8175  -12.0425  -15.0570
   629  Ag     -3.3970  -36.8888  -19.6693
   630  Ag     -3.3789  -31.4318  -19.6752
   631  Ag     -3.3608  -25.9748  -19.6811
   632  Ag     -3.3427  -20.5178  -19.6870
   633  Ag     -3.3247  -15.0608  -19.6929
   634  Ag     -1.8861  -34.4501  -24.3111
   635  Ag     -1.8680  -28.9931  -24.3170
   636  Ag     -1.8499  -23.5361  -24.3229
   637  Ag     -1.8318  -18.0791  -24.3288
   638  Ag     -0.3752  -32.0114  -28.9530
   639  Ag     -0.3571  -26.5544  -28.9589
   640  Ag     -0.3390  -21.0973  -28.9648
   641  Ag      1.1357  -29.5726  -33.5948
   642  Ag      1.1538  -24.1156  -33.6007
   643  Ag      2.6466  -27.1339  -38.2366
   644  Ag    -11.8676  -41.7519   -8.6156
   645  Ag    -11.8495  -36.2949   -8.6215
   646  Ag    -11.8314  -30.8379   -8.6274
   647  Ag    -11.8133  -25.3809   -8.6333
   648  Ag    -11.7952  -19.9239   -8.6392
   649  Ag    -11.7772  -14.4669   -8.6451
   650  Ag    -11.7591   -9.0099   -8.6510
   651  Ag    -10.3567  -39.3132  -13.2574
   652  Ag    -10.3386  -33.8562  -13.2633
   653  Ag    -10.3205  -28.3992  -13.2692
   654  Ag    -10.3024  -22.9422  -13.2751
   655  Ag    -10.2843  -17.4851  -13.2810
   656  Ag    -10.2663  -12.0281  -13.2869
   657  Ag     -8.8458  -36.8745  -17.8992
   658  Ag     -8.8277  -31.4174  -17.9051
   659  Ag     -8.8096  -25.9604  -17.9110
   660  Ag     -8.7915  -20.5034  -17.9169
   661  Ag     -8.7734  -15.0464  -17.9228
   662  Ag     -7.3349  -34.4357  -22.5411
   663  Ag     -7.3168  -28.9787  -22.5470
   664  Ag     -7.2987  -23.5217  -22.5529
   665  Ag     -7.2806  -18.0647  -22.5588
   666  Ag     -5.8240  -31.9970  -27.1829
   667  Ag     -5.8059  -26.5400  -27.1888
   668  Ag     -5.7878  -21.0830  -27.1947
   669  Ag     -4.3131  -29.5583  -31.8247
   670  Ag     -4.2950  -24.1012  -31.8306
   671  Ag     -2.8022  -27.1195  -36.4665
   672  Ag    -15.8055  -39.2988  -11.4873
   673  Ag    -15.7874  -33.8418  -11.4932
   674  Ag    -15.7693  -28.3848  -11.4991
   675  Ag    -15.7512  -22.9278  -11.5050
   676  Ag    -15.7331  -17.4708  -11.5109
   677  Ag    -15.7151  -12.0138  -11.5168
   678  Ag    -14.2946  -36.8601  -16.1292
   679  Ag    -14.2765  -31.4031  -16.1351
   680  Ag    -14.2584  -25.9461  -16.1410
   681  Ag    -14.2403  -20.4890  -16.1469
   682  Ag    -14.2222  -15.0320  -16.1528
   683  Ag    -12.7837  -34.4213  -20.7710
   684  Ag    -12.7656  -28.9643  -20.7769
   685  Ag    -12.7475  -23.5073  -20.7828
   686  Ag    -12.7294  -18.0503  -20.7887
   687  Ag    -11.2728  -31.9826  -25.4128
   688  Ag    -11.2547  -26.5256  -25.4187
   689  Ag    -11.2366  -21.0686  -25.4246
   690  Ag     -9.7619  -29.5439  -30.0546
   691  Ag     -9.7438  -24.0869  -30.0605
   692  Ag     -8.2510  -27.1051  -34.6965
   693  Ag    -19.7434  -36.8457  -14.3591
   694  Ag    -19.7253  -31.3887  -14.3650
   695  Ag    -19.7072  -25.9317  -14.3709
   696  Ag    -19.6891  -20.4747  -14.3768
   697  Ag    -19.6710  -15.0177  -14.3827
   698  Ag    -18.2325  -34.4070  -19.0009
   699  Ag    -18.2144  -28.9500  -19.0068
   700  Ag    -18.1963  -23.4929  -19.0127
   701  Ag    -18.1782  -18.0359  -19.0186
   702  Ag    -16.7216  -31.9682  -23.6427
   703  Ag    -16.7035  -26.5112  -23.6486
   704  Ag    -16.6854  -21.0542  -23.6545
   705  Ag    -15.2107  -29.5295  -28.2846
   706  Ag    -15.1926  -24.0725  -28.2905
   707  Ag    -13.6998  -27.0908  -32.9264
   708  Ag    -23.6813  -34.3926  -17.2308
   709  Ag    -23.6632  -28.9356  -17.2367
   710  Ag    -23.6451  -23.4786  -17.2426
   711  Ag    -23.6270  -18.0216  -17.2485
   712  Ag    -22.1704  -31.9539  -21.8727
   713  Ag    -22.1523  -26.4968  -21.8786
   714  Ag    -22.1342  -21.0398  -21.8845
   715  Ag    -20.6595  -29.5151  -26.5145
   716  Ag    -20.6414  -24.0581  -26.5204
   717  Ag    -19.1486  -27.0764  -31.1563
   718  Ag    -27.6192  -31.9395  -20.1026
   719  Ag    -27.6011  -26.4825  -20.1085
   720  Ag    -27.5830  -21.0254  -20.1144
   721  Ag    -26.1083  -29.5007  -24.7444
   722  Ag    -26.0902  -24.0437  -24.7503
   723  Ag    -24.5974  -27.0620  -29.3862
   724  Ag    -31.5571  -29.4864  -22.9743
   725  Ag    -31.5390  -24.0293  -22.9802
   726  Ag    -30.0462  -27.0476  -27.6162
   727  Ag    -35.4950  -27.0332  -25.8461
   728  Ag      3.8920  -51.5559   -2.8692
   729  Ag      8.7778  -49.1198   -2.8692
   730  Ag     13.6635  -46.6836   -2.8692
   731  Ag     18.5492  -44.2474   -2.8691
   732  Ag     23.4349  -41.8113   -2.8691
   733  Ag     28.3207  -39.3751   -2.8691
   734  Ag     33.2064  -36.9389   -2.8691
   735  Ag     38.0921  -34.5028   -2.8691
   736  Ag     42.9779  -32.0666   -2.8691
   737  Ag      7.8379  -54.0006   -5.7380
   738  Ag     12.7237  -51.5644   -5.7380
   739  Ag     17.6094  -49.1283   -5.7380
   740  Ag     22.4951  -46.6921   -5.7380
   741  Ag     27.3808  -44.2559   -5.7380
   742  Ag     32.2666  -41.8198   -5.7380
   743  Ag     37.1523  -39.3836   -5.7380
   744  Ag     42.0380  -36.9474   -5.7379
   745  Ag     11.7838  -56.4453   -8.6068
   746  Ag     16.6696  -54.0091   -8.6068
   747  Ag     21.5553  -51.5729   -8.6068
   748  Ag     26.4410  -49.1368   -8.6068
   749  Ag     31.3267  -46.7006   -8.6068
   750  Ag     36.2125  -44.2644   -8.6068
   751  Ag     41.0982  -41.8283   -8.6068
   752  Ag     15.7297  -58.8900  -11.4757
   753  Ag     20.6155  -56.4538  -11.4757
   754  Ag     25.5012  -54.0176  -11.4757
   755  Ag     30.3869  -51.5815  -11.4757
   756  Ag     35.2726  -49.1453  -11.4757
   757  Ag     40.1584  -46.7091  -11.4756
   758  Ag     19.6756  -61.3346  -14.3445
   759  Ag     24.5614  -58.8985  -14.3445
   760  Ag     29.4471  -56.4623  -14.3445
   761  Ag     34.3328  -54.0261  -14.3445
   762  Ag     39.2185  -51.5900  -14.3445
   763  Ag     23.6215  -63.7793  -17.2134
   764  Ag     28.5073  -61.3431  -17.2134
   765  Ag     33.3930  -58.9070  -17.2133
   766  Ag     38.2787  -56.4708  -17.2133
   767  Ag     27.5674  -66.2240  -20.0822
   768  Ag     32.4532  -63.7878  -20.0822
   769  Ag     37.3389  -61.3516  -20.0822
   770  Ag     31.5133  -68.6686  -22.9510
   771  Ag     36.3991  -66.2325  -22.9510
   772  Ag     35.4592  -71.1133  -25.8199
   773  Ag      5.4179  -49.1228   -7.5111
   774  Ag     10.3036  -46.6866   -7.5111
   775  Ag     15.1894  -44.2504   -7.5111
   776  Ag     20.0751  -41.8143   -7.5111
   777  Ag     24.9608  -39.3781   -7.5110
   778  Ag     29.8465  -36.9419   -7.5110
   779  Ag     34.7323  -34.5058   -7.5110
   780  Ag     39.6180  -32.0696   -7.5110
   781  Ag      9.3638  -51.5675  -10.3799
   782  Ag     14.2495  -49.1313  -10.3799
   783  Ag     19.1353  -46.6951  -10.3799
   784  Ag     24.0210  -44.2589  -10.3799
   785  Ag     28.9067  -41.8228  -10.3799
   786  Ag     33.7924  -39.3866  -10.3799
   787  Ag     38.6782  -36.9504  -10.3799
   788  Ag     13.3097  -54.0121  -13.2488
   789  Ag     18.1954  -51.5760  -13.2488
   790  Ag     23.0812  -49.1398  -13.2487
   791  Ag     27.9669  -46.7036  -13.2487
   792  Ag     32.8526  -44.2675  -13.2487
   793  Ag     37.7383  -41.8313  -13.2487
   794  Ag     17.2556  -56.4568  -16.1176
   795  Ag     22.1413  -54.0206  -16.1176
   796  Ag     27.0271  -51.5845  -16.1176
   797  Ag     31.9128  -49.1483  -16.1176
   798  Ag     36.7985  -46.7121  -16.1176
   799  Ag     21.2015  -58.9015  -18.9864
   800  Ag     26.0872  -56.4653  -18.9864
   801  Ag     30.9730  -54.0291  -18.9864
   802  Ag     35.8587  -51.5930  -18.9864
   803  Ag     25.1474  -61.3461  -21.8553
   804  Ag     30.0331  -58.9100  -21.8553
   805  Ag     34.9189  -56.4738  -21.8553
   806  Ag     29.0933  -63.7908  -24.7241
   807  Ag     33.9790  -61.3546  -24.7241
   808  Ag     33.0392  -66.2355  -27.5930
   809  Ag      6.9438  -46.6896  -12.1530
   810  Ag     11.8295  -44.2535  -12.1530
   811  Ag     16.7152  -41.8173  -12.1530
   812  Ag     21.6010  -39.3811  -12.1530
   813  Ag     26.4867  -36.9449  -12.1530
   814  Ag     31.3724  -34.5088  -12.1529
   815  Ag     36.2581  -32.0726  -12.1529
   816  Ag     10.8897  -49.1343  -15.0218
   817  Ag     15.7754  -46.6981  -15.0218
   818  Ag     20.6611  -44.2620  -15.0218
   819  Ag     25.5469  -41.8258  -15.0218
   820  Ag     30.4326  -39.3896  -15.0218
   821  Ag     35.3183  -36.9535  -15.0218
   822  Ag     14.8356  -51.5790  -17.8907
   823  Ag     19.7213  -49.1428  -17.8907
   824  Ag     24.6070  -46.7066  -17.8907
   825  Ag     29.4928  -44.2705  -17.8906
   826  Ag     34.3785  -41.8343  -17.8906
   827  Ag     18.7815  -54.0236  -20.7595
   828  Ag     23.6672  -51.5875  -20.7595
   829  Ag     28.5529  -49.1513  -20.7595
   830  Ag     33.4387  -46.7151  -20.7595
   831  Ag     22.7274  -56.4683  -23.6283
   832  Ag     27.6131  -54.0321  -23.6283
   833  Ag     32.4988  -51.5960  -23.6283
   834  Ag     26.6733  -58.9130  -26.4972
   835  Ag     31.5590  -56.4768  -26.4972
   836  Ag     30.6192  -61.3576  -29.3660
   837  Ag      8.4697  -44.2565  -16.7949
   838  Ag     13.3554  -41.8203  -16.7949
   839  Ag     18.2411  -39.3841  -16.7949
   840  Ag     23.1268  -36.9480  -16.7949
   841  Ag     28.0126  -34.5118  -16.7949
   842  Ag     32.8983  -32.0756  -16.7949
   843  Ag     12.4156  -46.7011  -19.6637
   844  Ag     17.3013  -44.2650  -19.6637
   845  Ag     22.1870  -41.8288  -19.6637
   846  Ag     27.0727  -39.3926  -19.6637
   847  Ag     31.9585  -36.9565  -19.6637
   848  Ag     16.3615  -49.1458  -22.5326
   849  Ag     21.2472  -46.7096  -22.5326
   850  Ag     26.1329  -44.2735  -22.5326
   851  Ag     31.0186  -41.8373  -22.5326
   852  Ag     20.3074  -51.5905  -25.4014
   853  Ag     25.1931  -49.1543  -25.4014
   854  Ag     30.0788  -46.7181  -25.4014
   855  Ag     24.2533  -54.0351  -28.2703
   856  Ag     29.1390  -51.5990  -28.2702
   857  Ag     28.1992  -56.4798  -31.1391
   858  Ag      9.9955  -41.8233  -21.4368
   859  Ag     14.8813  -39.3871  -21.4368
   860  Ag     19.7670  -36.9510  -21.4368
   861  Ag     24.6527  -34.5148  -21.4368
   862  Ag     29.5384  -32.0786  -21.4368
   863  Ag     13.9414  -44.2680  -24.3056
   864  Ag     18.8272  -41.8318  -24.3056
   865  Ag     23.7129  -39.3956  -24.3056
   866  Ag     28.5986  -36.9595  -24.3056
   867  Ag     17.8873  -46.7126  -27.1745
   868  Ag     22.7731  -44.2765  -27.1745
   869  Ag     27.6588  -41.8403  -27.1745
   870  Ag     21.8332  -49.1573  -30.0433
   871  Ag     26.7190  -46.7211  -30.0433
   872  Ag     25.7791  -51.6020  -32.9122
   873  Ag     11.5214  -39.3901  -26.0787
   874  Ag     16.4071  -36.9540  -26.0787
   875  Ag     21.2929  -34.5178  -26.0787
   876  Ag     26.1786  -32.0816  -26.0787
   877  Ag     15.4673  -41.8348  -28.9476
   878  Ag     20.3530  -39.3986  -28.9476
   879  Ag     25.2388  -36.9625  -28.9475
   880  Ag     19.4132  -44.2795  -31.8164
   881  Ag     24.2989  -41.8433  -31.8164
   882  Ag     23.3591  -46.7241  -34.6852
   883  Ag     13.0473  -36.9570  -30.7206
   884  Ag     17.9330  -34.5208  -30.7206
   885  Ag     22.8187  -32.0846  -30.7206
   886  Ag     16.9932  -39.4016  -33.5895
   887  Ag     21.8789  -36.9655  -33.5895
   888  Ag     20.9391  -41.8463  -36.4583
   889  Ag     14.5732  -34.5238  -35.3625
   890  Ag     19.4589  -32.0876  -35.3625
   891  Ag     18.5191  -36.9685  -38.2314
   892  Ag     16.0990  -32.0907  -40.0045
   893  Ag     -1.5543  -51.5465   -4.6469
   894  Ag     -0.0304  -49.1094   -9.2856
   895  Ag      1.4935  -46.6723  -13.9243
   896  Ag      3.0174  -44.2352  -18.5630
   897  Ag      4.5413  -41.7980  -23.2017
   898  Ag      6.0652  -39.3609  -27.8404
   899  Ag      7.5891  -36.9238  -32.4791
   900  Ag      9.1130  -34.4867  -37.1178
   901  Ag     10.6369  -32.0496  -41.7565
   902  Ag      2.3916  -53.9912   -7.5157
   903  Ag      3.9155  -51.5541  -12.1544
   904  Ag      5.4394  -49.1169  -16.7931
   905  Ag      6.9633  -46.6798  -21.4318
   906  Ag      8.4872  -44.2427  -26.0705
   907  Ag     10.0111  -41.8056  -30.7092
   908  Ag     11.5350  -39.3685  -35.3479
   909  Ag     13.0589  -36.9314  -39.9866
   910  Ag      6.3375  -56.4358  -10.3845
   911  Ag      7.8614  -53.9987  -15.0232
   912  Ag      9.3853  -51.5616  -19.6619
   913  Ag     10.9092  -49.1245  -24.3006
   914  Ag     12.4331  -46.6874  -28.9393
   915  Ag     13.9570  -44.2503  -33.5780
   916  Ag     15.4809  -41.8132  -38.2167
   917  Ag     10.2834  -58.8805  -13.2534
   918  Ag     11.8073  -56.4434  -17.8921
   919  Ag     13.3312  -54.0063  -22.5308
   920  Ag     14.8551  -51.5692  -27.1695
   921  Ag     16.3790  -49.1321  -31.8082
   922  Ag     17.9029  -46.6949  -36.4469
   923  Ag     14.2293  -61.3252  -16.1222
   924  Ag     15.7532  -58.8881  -20.7609
   925  Ag     17.2771  -56.4510  -25.3996
   926  Ag     18.8010  -54.0138  -30.0383
   927  Ag     20.3249  -51.5767  -34.6770
   928  Ag     18.1752  -63.7699  -18.9910
   929  Ag     19.6991  -61.3327  -23.6297
   930  Ag     21.2230  -58.8956  -28.2684
   931  Ag     22.7469  -56.4585  -32.9072
   932  Ag     22.1211  -66.2145  -21.8599
   933  Ag     23.6450  -63.7774  -26.4986
   934  Ag     25.1689  -61.3403  -31.1373
   935  Ag     26.0670  -68.6592  -24.7287
   936  Ag     27.5909  -66.2221  -29.3674
   937  Ag     30.0129  -71.1039  -27.5976
   938  Ag     -3.0547  -53.9817   -9.2934
   939  Ag     -1.5308  -51.5446  -13.9321
   940  Ag     -0.0069  -49.1075  -18.5708
   941  Ag      1.5170  -46.6704  -23.2095
   942  Ag      3.0409  -44.2333  -27.8482
   943  Ag      4.5648  -41.7962  -32.4869
   944  Ag      6.0887  -39.3590  -37.1256
   945  Ag      7.6126  -36.9219  -41.7643
   946  Ag      0.8912  -56.4264  -12.1622
   947  Ag      2.4151  -53.9893  -16.8009
   948  Ag      3.9390  -51.5522  -21.4396
   949  Ag      5.4629  -49.1151  -26.0783
   950  Ag      6.9868  -46.6779  -30.7170
   951  Ag      8.5107  -44.2408  -35.3557
   952  Ag     10.0346  -41.8037  -39.9944
   953  Ag      4.8371  -58.8711  -15.0311
   954  Ag      6.3610  -56.4340  -19.6698
   955  Ag      7.8849  -53.9968  -24.3085
   956  Ag      9.4088  -51.5597  -28.9472
   957  Ag     10.9327  -49.1226  -33.5859
   958  Ag     12.4566  -46.6855  -38.2246
   959  Ag      8.7830  -61.3157  -17.8999
   960  Ag     10.3069  -58.8786  -22.5386
   961  Ag     11.8308  -56.4415  -27.1773
   962  Ag     13.3547  -54.0044  -31.8160
   963  Ag     14.8786  -51.5673  -36.4547
   964  Ag     12.7289  -63.7604  -20.7687
   965  Ag     14.2528  -61.3233  -25.4074
   966  Ag     15.7767  -58.8862  -30.0461
   967  Ag     17.3006  -56.4491  -34.6848
   968  Ag     16.6748  -66.2051  -23.6376
   969  Ag     18.1987  -63.7680  -28.2763
   970  Ag     19.7226  -61.3309  -32.9150
   971  Ag     20.6207  -68.6498  -26.5064
   972  Ag     22.1446  -66.2126  -31.1451
   973  Ag     24.5666  -71.0944  -29.3752
   974  Ag     -4.5552  -56.4170  -13.9399
   975  Ag     -3.0312  -53.9798  -18.5786
   976  Ag     -1.5073  -51.5427  -23.2173
   977  Ag      0.0166  -49.1056  -27.8560
   978  Ag      1.5405  -46.6685  -32.4947
   979  Ag      3.0644  -44.2314  -37.1334
   980  Ag      4.5883  -41.7943  -41.7721
   981  Ag     -0.6093  -58.8616  -16.8087
   982  Ag      0.9147  -56.4245  -21.4474
   983  Ag      2.4386  -53.9874  -26.0861
   984  Ag      3.9625  -51.5503  -30.7248
   985  Ag      5.4864  -49.1132  -35.3635
   986  Ag      7.0103  -46.6761  -40.0022
   987  Ag      3.3367  -61.3063  -19.6776
   988  Ag      4.8606  -58.8692  -24.3163
   989  Ag      6.3845  -56.4321  -28.9550
   990  Ag      7.9084  -53.9950  -33.5937
   991  Ag      9.4323  -51.5578  -38.2324
   992  Ag      7.2826  -63.7510  -22.5464
   993  Ag      8.8065  -61.3139  -27.1851
   994  Ag     10.3304  -58.8767  -31.8238
   995  Ag     11.8543  -56.4396  -36.4625
   996  Ag     11.2285  -66.1956  -25.4153
   997  Ag     12.7524  -63.7585  -30.0540
   998  Ag     14.2763  -61.3214  -34.6927
   999  Ag     15.1744  -68.6403  -28.2841
  1000  Ag     16.6983  -66.2032  -32.9228
  1001  Ag     19.1203  -71.0850  -31.1529
  1002  Ag     -6.0556  -58.8522  -18.5864
  1003  Ag     -4.5317  -56.4151  -23.2251
  1004  Ag     -3.0078  -53.9780  -27.8638
  1005  Ag     -1.4839  -51.5408  -32.5025
  1006  Ag      0.0400  -49.1037  -37.1412
  1007  Ag      1.5639  -46.6666  -41.7799
  1008  Ag     -2.1097  -61.2969  -21.4553
  1009  Ag     -0.5858  -58.8597  -26.0940
  1010  Ag      0.9381  -56.4226  -30.7327
  1011  Ag      2.4620  -53.9855  -35.3714
  1012  Ag      3.9859  -51.5484  -40.0101
  1013  Ag      1.8362  -63.7415  -24.3241
  1014  Ag      3.3601  -61.3044  -28.9628
  1015  Ag      4.8840  -58.8673  -33.6015
  1016  Ag      6.4079  -56.4302  -38.2402
  1017  Ag      5.7821  -66.1862  -27.1929
  1018  Ag      7.3060  -63.7491  -31.8316
  1019  Ag      8.8299  -61.3120  -36.4703
  1020  Ag      9.7280  -68.6309  -30.0618
  1021  Ag     11.2519  -66.1938  -34.7005
  1022  Ag     13.6739  -71.0755  -32.9306
  1023  Ag     -7.5560  -61.2874  -23.2329
  1024  Ag     -6.0321  -58.8503  -27.8716
  1025  Ag     -4.5082  -56.4132  -32.5103
  1026  Ag     -2.9843  -53.9761  -37.1490
  1027  Ag     -1.4604  -51.5390  -41.7877
  1028  Ag     -3.6101  -63.7321  -26.1018
  1029  Ag     -2.0862  -61.2950  -30.7405
  1030  Ag     -0.5623  -58.8579  -35.3792
  1031  Ag      0.9616  -56.4207  -40.0179
  1032  Ag      0.3358  -66.1767  -28.9706
  1033  Ag      1.8597  -63.7396  -33.6093
  1034  Ag      3.3836  -61.3025  -38.2480
  1035  Ag      4.2817  -68.6214  -31.8395
  1036  Ag      5.8056  -66.1843  -36.4782
  1037  Ag      8.2276  -71.0661  -34.7083
  1038  Ag     -9.0564  -63.7226  -27.8795
  1039  Ag     -7.5325  -61.2855  -32.5182
  1040  Ag     -6.0086  -58.8484  -37.1569
  1041  Ag     -4.4847  -56.4113  -41.7956
  1042  Ag     -5.1105  -66.1673  -30.7483
  1043  Ag     -3.5866  -63.7302  -35.3870
  1044  Ag     -2.0627  -61.2931  -40.0257
  1045  Ag     -1.1646  -68.6120  -33.6171
  1046  Ag      0.3593  -66.1749  -38.2558
  1047  Ag      2.7813  -71.0566  -36.4860
  1048  Ag    -10.5569  -66.1579  -32.5260
  1049  Ag     -9.0330  -63.7207  -37.1647
  1050  Ag     -7.5090  -61.2836  -41.8034
  1051  Ag     -6.6110  -68.6025  -35.3948
  1052  Ag     -5.0871  -66.1654  -40.0335
  1053  Ag     -2.6651  -71.0472  -38.2637
  1054  Ag    -12.0573  -68.5931  -37.1725
  1055  Ag    -10.5334  -66.1560  -41.8112
  1056  Ag     -8.1114  -71.0378  -40.0414
  1057  Ag    -13.5577  -71.0283  -41.8190
  1058  Ag      3.8920  -51.5560    2.8685
  1059  Ag      8.7778  -49.1198    2.8685
  1060  Ag     13.6635  -46.6836    2.8685
  1061  Ag     18.5492  -44.2475    2.8685
  1062  Ag     23.4349  -41.8113    2.8685
  1063  Ag     28.3207  -39.3751    2.8685
  1064  Ag     33.2064  -36.9390    2.8685
  1065  Ag     38.0921  -34.5028    2.8685
  1066  Ag     42.9779  -32.0666    2.8685
  1067  Ag      7.8379  -54.0007    5.7373
  1068  Ag     12.7237  -51.5645    5.7373
  1069  Ag     17.6094  -49.1284    5.7373
  1070  Ag     22.4951  -46.6922    5.7373
  1071  Ag     27.3809  -44.2560    5.7373
  1072  Ag     32.2666  -41.8199    5.7373
  1073  Ag     37.1523  -39.3837    5.7373
  1074  Ag     42.0380  -36.9475    5.7373
  1075  Ag     11.7839  -56.4454    8.6060
  1076  Ag     16.6696  -54.0092    8.6061
  1077  Ag     21.5553  -51.5731    8.6061
  1078  Ag     26.4410  -49.1369    8.6061
  1079  Ag     31.3268  -46.7007    8.6061
  1080  Ag     36.2125  -44.2646    8.6061
  1081  Ag     41.0982  -41.8284    8.6061
  1082  Ag     15.7298  -58.8901   11.4748
  1083  Ag     20.6155  -56.4539   11.4748
  1084  Ag     25.5012  -54.0178   11.4749
  1085  Ag     30.3870  -51.5816   11.4749
  1086  Ag     35.2727  -49.1454   11.4749
  1087  Ag     40.1584  -46.7093   11.4749
  1088  Ag     19.6757  -61.3348   14.3436
  1089  Ag     24.5614  -58.8987   14.3436
  1090  Ag     29.4471  -56.4625   14.3436
  1091  Ag     34.3329  -54.0263   14.3437
  1092  Ag     39.2186  -51.5901   14.3437
  1093  Ag     23.6216  -63.7795   17.2124
  1094  Ag     28.5073  -61.3434   17.2124
  1095  Ag     33.3930  -58.9072   17.2124
  1096  Ag     38.2788  -56.4710   17.2124
  1097  Ag     27.5675  -66.2242   20.0812
  1098  Ag     32.4532  -63.7881   20.0812
  1099  Ag     37.3390  -61.3519   20.0812
  1100  Ag     31.5134  -68.6690   22.9500
  1101  Ag     36.3991  -66.2328   22.9500
  1102  Ag     35.4593  -71.1137   25.8188
  1103  Ag      7.8494  -53.9991    0.0107
  1104  Ag     12.7351  -51.5629    0.0107
  1105  Ag     17.6208  -49.1267    0.0107
  1106  Ag     22.5065  -46.6906    0.0107
  1107  Ag     27.3923  -44.2544    0.0107
  1108  Ag     32.2780  -41.8182    0.0107
  1109  Ag     37.1637  -39.3821    0.0107
  1110  Ag     42.0495  -36.9459    0.0108
  1111  Ag     11.7953  -56.4438    2.8795
  1112  Ag     16.6810  -54.0076    2.8795
  1113  Ag     21.5667  -51.5715    2.8795
  1114  Ag     26.4524  -49.1353    2.8795
  1115  Ag     31.3382  -46.6991    2.8795
  1116  Ag     36.2239  -44.2629    2.8795
  1117  Ag     41.1096  -41.8268    2.8795
  1118  Ag     15.7412  -58.8885    5.7483
  1119  Ag     20.6269  -56.4523    5.7483
  1120  Ag     25.5126  -54.0162    5.7483
  1121  Ag     30.3984  -51.5800    5.7483
  1122  Ag     35.2841  -49.1438    5.7483
  1123  Ag     40.1698  -46.7077    5.7483
  1124  Ag     19.6871  -61.3332    8.6171
  1125  Ag     24.5728  -58.8970    8.6171
  1126  Ag     29.4585  -56.4609    8.6171
  1127  Ag     34.3443  -54.0247    8.6171
  1128  Ag     39.2300  -51.5885    8.6171
  1129  Ag     23.6330  -63.7779   11.4859
  1130  Ag     28.5187  -61.3418   11.4859
  1131  Ag     33.4045  -58.9056   11.4859
  1132  Ag     38.2902  -56.4694   11.4859
  1133  Ag     27.5789  -66.2226   14.3547
  1134  Ag     32.4646  -63.7865   14.3547
  1135  Ag     37.3504  -61.3503   14.3547
  1136  Ag     31.5248  -68.6673   17.2235
  1137  Ag     36.4105  -66.2312   17.2235
  1138  Ag     35.4707  -71.1120   20.0922
  1139  Ag     11.8067  -56.4422   -2.8471
  1140  Ag     16.6924  -54.0060   -2.8471
  1141  Ag     21.5781  -51.5698   -2.8470
  1142  Ag     26.4639  -49.1337   -2.8470
  1143  Ag     31.3496  -46.6975   -2.8470
  1144  Ag     36.2353  -44.2613   -2.8470
  1145  Ag     41.1210  -41.8252   -2.8470
  1146  Ag     15.7526  -58.8869    0.0217
  1147  Ag     20.6383  -56.4507    0.0217
  1148  Ag     25.5240  -54.0146    0.0217
  1149  Ag     30.4098  -51.5784    0.0218
  1150  Ag     35.2955  -49.1422    0.0218
  1151  Ag     40.1812  -46.7060    0.0218
  1152  Ag     19.6985  -61.3316    2.8905
  1153  Ag     24.5842  -58.8954    2.8905
  1154  Ag     29.4700  -56.4593    2.8905
  1155  Ag     34.3557  -54.0231    2.8905
  1156  Ag     39.2414  -51.5869    2.8906
  1157  Ag     23.6444  -63.7763    5.7593
  1158  Ag     28.5301  -61.3401    5.7593
  1159  Ag     33.4159  -58.9040    5.7593
  1160  Ag     38.3016  -56.4678    5.7593
  1161  Ag     27.5903  -66.2210    8.6281
  1162  Ag     32.4760  -63.7848    8.6281
  1163  Ag     37.3618  -61.3487    8.6281
  1164  Ag     31.5362  -68.6657   11.4969
  1165  Ag     36.4220  -66.2296   11.4969
  1166  Ag     35.4821  -71.1104   14.3657
  1167  Ag     15.7640  -58.8853   -5.7048
  1168  Ag     20.6497  -56.4491   -5.7048
  1169  Ag     25.5354  -54.0129   -5.7048
  1170  Ag     30.4212  -51.5768   -5.7048
  1171  Ag     35.3069  -49.1406   -5.7048
  1172  Ag     40.1926  -46.7044   -5.7048
  1173  Ag     19.7099  -61.3300   -2.8360
  1174  Ag     24.5956  -58.8938   -2.8360
  1175  Ag     29.4814  -56.4576   -2.8360
  1176  Ag     34.3671  -54.0215   -2.8360
  1177  Ag     39.2528  -51.5853   -2.8360
  1178  Ag     23.6558  -63.7747    0.0328
  1179  Ag     28.5415  -61.3385    0.0328
  1180  Ag     33.4273  -58.9024    0.0328
  1181  Ag     38.3130  -56.4662    0.0328
  1182  Ag     27.6017  -66.2194    2.9016
  1183  Ag     32.4875  -63.7832    2.9016
  1184  Ag     37.3732  -61.3471    2.9016
  1185  Ag     31.5476  -68.6641    5.7703
  1186  Ag     36.4334  -66.2279    5.7704
  1187  Ag     35.4935  -71.1088    8.6391
  1188  Ag     19.7213  -61.3284   -8.5626
  1189  Ag     24.6070  -58.8922   -8.5626
  1190  Ag     29.4928  -56.4560   -8.5626
  1191  Ag     34.3785  -54.0199   -8.5626
  1192  Ag     39.2642  -51.5837   -8.5626
  1193  Ag     23.6672  -63.7731   -5.6938
  1194  Ag     28.5529  -61.3369   -5.6938
  1195  Ag     33.4387  -58.9007   -5.6938
  1196  Ag     38.3244  -56.4646   -5.6938
  1197  Ag     27.6131  -66.2178   -2.8250
  1198  Ag     32.4989  -63.7816   -2.8250
  1199  Ag     37.3846  -61.3455   -2.8250
  1200  Ag     31.5590  -68.6625    0.0438
  1201  Ag     36.4448  -66.2263    0.0438
  1202  Ag     35.5050  -71.1072    2.9126
  1203  Ag     23.6786  -63.7715  -11.4204
  1204  Ag     28.5644  -61.3353  -11.4203
  1205  Ag     33.4501  -58.8991  -11.4203
  1206  Ag     38.3358  -56.4630  -11.4203
  1207  Ag     27.6245  -66.2162   -8.5516
  1208  Ag     32.5103  -63.7800   -8.5515
  1209  Ag     37.3960  -61.3438   -8.5515
  1210  Ag     31.5704  -68.6609   -5.6828
  1211  Ag     36.4562  -66.2247   -5.6828
  1212  Ag     35.5164  -71.1056   -2.8140
  1213  Ag     27.6359  -66.2146  -14.2781
  1214  Ag     32.5217  -63.7784  -14.2781
  1215  Ag     37.4074  -61.3422  -14.2781
  1216  Ag     31.5819  -68.6593  -11.4093
  1217  Ag     36.4676  -66.2231  -11.4093
  1218  Ag     35.5278  -71.1040   -8.5405
  1219  Ag     31.5933  -68.6577  -17.1359
  1220  Ag     36.4790  -66.2215  -17.1359
  1221  Ag     35.5392  -71.1024  -14.2671
  1222  Ag     35.5506  -71.1008  -19.9936
  1223  Ag     -0.0479  -54.5676   -0.0003
  1224  Ag      3.9075  -57.0068   -2.8613
  1225  Ag      7.8628  -59.4459   -5.7222
  1226  Ag     11.8182  -61.8851   -8.5832
  1227  Ag     15.7735  -64.3242  -11.4442
  1228  Ag     19.7288  -66.7633  -14.3052
  1229  Ag     23.6842  -69.2025  -17.1661
  1230  Ag     27.6395  -71.6416  -20.0271
  1231  Ag     31.5949  -74.0808  -22.8881
  1232  Ag      3.8980  -57.0123    2.8685
  1233  Ag      7.8534  -59.4515    0.0075
  1234  Ag     11.8087  -61.8906   -2.8534
  1235  Ag     15.7641  -64.3298   -5.7144
  1236  Ag     19.7194  -66.7689   -8.5754
  1237  Ag     23.6748  -69.2081  -11.4364
  1238  Ag     27.6301  -71.6472  -14.2973
  1239  Ag     31.5855  -74.0863  -17.1583
  1240  Ag      7.8439  -59.4570    5.7373
  1241  Ag     11.7993  -61.8962    2.8763
  1242  Ag     15.7546  -64.3353    0.0153
  1243  Ag     19.7100  -66.7745   -2.8456
  1244  Ag     23.6653  -69.2136   -5.7066
  1245  Ag     27.6207  -71.6528   -8.5676
  1246  Ag     31.5760  -74.0919  -11.4285
  1247  Ag     11.7898  -61.9018    8.6061
  1248  Ag     15.7452  -64.3409    5.7451
  1249  Ag     19.7005  -66.7800    2.8841
  1250  Ag     23.6559  -69.2192    0.0232
  1251  Ag     27.6112  -71.6583   -2.8378
  1252  Ag     31.5666  -74.0975   -5.6988
  1253  Ag     15.7358  -64.3465   11.4749
  1254  Ag     19.6911  -66.7856    8.6139
  1255  Ag     23.6464  -69.2247    5.7529
  1256  Ag     27.6018  -71.6639    2.8920
  1257  Ag     31.5571  -74.1030    0.0310
  1258  Ag     19.6817  -66.7912   14.3437
  1259  Ag     23.6370  -69.2303   11.4827
  1260  Ag     27.5924  -71.6695    8.6217
  1261  Ag     31.5477  -74.1086    5.7608
  1262  Ag     23.6276  -69.2359   17.2125
  1263  Ag     27.5829  -71.6750   14.3515
  1264  Ag     31.5383  -74.1142   11.4905
  1265  Ag     27.5735  -71.6806   20.0813
  1266  Ag     31.5288  -74.1197   17.2203
  1267  Ag     31.5194  -74.1253   22.9500
  1268  Ag     -0.0419  -60.0240   -0.0003
  1269  Ag      3.9134  -62.4631   -2.8612
  1270  Ag      7.8688  -64.9023   -5.7222
  1271  Ag     11.8241  -67.3414   -8.5832
  1272  Ag     15.7795  -69.7805  -11.4441
  1273  Ag     19.7348  -72.2197  -14.3051
  1274  Ag     23.6902  -74.6588  -17.1661
  1275  Ag     27.6455  -77.0980  -20.0271
  1276  Ag      3.9040  -62.4687    2.8685
  1277  Ag      7.8594  -64.9078    0.0076
  1278  Ag     11.8147  -67.3470   -2.8534
  1279  Ag     15.7700  -69.7861   -5.7144
  1280  Ag     19.7254  -72.2253   -8.5754
  1281  Ag     23.6807  -74.6644  -11.4363
  1282  Ag     27.6361  -77.1035  -14.2973
  1283  Ag      7.8499  -64.9134    5.7373
  1284  Ag     11.8053  -67.3525    2.8764
  1285  Ag     15.7606  -69.7917    0.0154
  1286  Ag     19.7160  -72.2308   -2.8456
  1287  Ag     23.6713  -74.6700   -5.7066
  1288  Ag     27.6267  -77.1091   -8.5675
  1289  Ag     11.7958  -67.3581    8.6061
  1290  Ag     15.7512  -69.7972    5.7451
  1291  Ag     19.7065  -72.2364    2.8842
  1292  Ag     23.6619  -74.6755    0.0232
  1293  Ag     27.6172  -77.1147   -2.8378
  1294  Ag     15.7417  -69.8028   11.4749
  1295  Ag     19.6971  -72.2420    8.6139
  1296  Ag     23.6524  -74.6811    5.7530
  1297  Ag     27.6078  -77.1202    2.8920
  1298  Ag     19.6877  -72.2475   14.3437
  1299  Ag     23.6430  -74.6867   11.4827
  1300  Ag     27.5983  -77.1258    8.6218
  1301  Ag     23.6336  -74.6922   17.2125
  1302  Ag     27.5889  -77.1314   14.3515
  1303  Ag     27.5795  -77.1369   20.0813
  1304  Ag     -0.0359  -65.4803   -0.0002
  1305  Ag      3.9194  -67.9195   -2.8612
  1306  Ag      7.8748  -70.3586   -5.7222
  1307  Ag     11.8301  -72.7978   -8.5831
  1308  Ag     15.7855  -75.2369  -11.4441
  1309  Ag     19.7408  -77.6760  -14.3051
  1310  Ag     23.6962  -80.1152  -17.1660
  1311  Ag      3.9100  -67.9250    2.8686
  1312  Ag      7.8653  -70.3642    0.0076
  1313  Ag     11.8207  -72.8033   -2.8534
  1314  Ag     15.7760  -75.2425   -5.7143
  1315  Ag     19.7314  -77.6816   -8.5753
  1316  Ag     23.6867  -80.1208  -11.4363
  1317  Ag      7.8559  -70.3697    5.7374
  1318  Ag     11.8113  -72.8089    2.8764
  1319  Ag     15.7666  -75.2480    0.0154
  1320  Ag     19.7219  -77.6872   -2.8455
  1321  Ag     23.6773  -80.1263   -5.7065
  1322  Ag     11.8018  -72.8144    8.6062
  1323  Ag     15.7572  -75.2536    5.7452
  1324  Ag     19.7125  -77.6927    2.8842
  1325  Ag     23.6679  -80.1319    0.0232
  1326  Ag     15.7477  -75.2592   11.4749
  1327  Ag     19.7031  -77.6983    8.6140
  1328  Ag     23.6584  -80.1374    5.7530
  1329  Ag     19.6936  -77.7039   14.3437
  1330  Ag     23.6490  -80.1430   11.4828
  1331  Ag     23.6395  -80.1486   17.2125
  1332  Ag     -0.0299  -70.9367   -0.0002
  1333  Ag      3.9254  -73.3758   -2.8612
  1334  Ag      7.8808  -75.8150   -5.7221
  1335  Ag     11.8361  -78.2541   -8.5831
  1336  Ag     15.7915  -80.6932  -11.4441
  1337  Ag     19.7468  -83.1324  -14.3050
  1338  Ag      3.9160  -73.3814    2.8686
  1339  Ag      7.8713  -75.8205    0.0076
  1340  Ag     11.8267  -78.2597   -2.8533
  1341  Ag     15.7820  -80.6988   -5.7143
  1342  Ag     19.7374  -83.1380   -8.5753
  1343  Ag      7.8619  -75.8261    5.7374
  1344  Ag     11.8172  -78.2652    2.8764
  1345  Ag     15.7726  -80.7044    0.0155
  1346  Ag     19.7279  -83.1435   -2.8455
  1347  Ag     11.8078  -78.2708    8.6062
  1348  Ag     15.7631  -80.7099    5.7452
  1349  Ag     19.7185  -83.1491    2.8843
  1350  Ag     15.7537  -80.7155   11.4750
  1351  Ag     19.7091  -83.1547    8.6140
  1352  Ag     19.6996  -83.1602   14.3438
  1353  Ag     -0.0239  -76.3930   -0.0001
  1354  Ag      3.9314  -78.8322   -2.8611
  1355  Ag      7.8868  -81.2713   -5.7221
  1356  Ag     11.8421  -83.7105   -8.5831
  1357  Ag     15.7974  -86.1496  -11.4440
  1358  Ag      3.9220  -78.8377    2.8686
  1359  Ag      7.8773  -81.2769    0.0077
  1360  Ag     11.8327  -83.7160   -2.8533
  1361  Ag     15.7880  -86.1552   -5.7143
  1362  Ag      7.8679  -81.2824    5.7374
  1363  Ag     11.8232  -83.7216    2.8765
  1364  Ag     15.7786  -86.1607    0.0155
  1365  Ag     11.8138  -83.7271    8.6062
  1366  Ag     15.7691  -86.1663    5.7453
  1367  Ag     15.7597  -86.1719   11.4750
  1368  Ag     -0.0180  -81.8494   -0.0001
  1369  Ag      3.9374  -84.2885   -2.8611
  1370  Ag      7.8927  -86.7277   -5.7221
  1371  Ag     11.8481  -89.1668   -8.5830
  1372  Ag      3.9280  -84.2941    2.8687
  1373  Ag      7.8833  -86.7332    0.0077
  1374  Ag     11.8386  -89.1724   -2.8533
  1375  Ag      7.8739  -86.7388    5.7375
  1376  Ag     11.8292  -89.1779    2.8765
  1377  Ag     11.8198  -89.1835    8.6063
  1378  Ag     -0.0120  -87.3057   -0.0001
  1379  Ag      3.9434  -89.7449   -2.8610
  1380  Ag      7.8987  -92.1840   -5.7220
  1381  Ag      3.9339  -89.7504    2.8687
  1382  Ag      7.8893  -92.1896    0.0077
  1383  Ag      7.8798  -92.1951    5.7375
  1384  Ag     -0.0060  -92.7621   -0.0000
  1385  Ag      3.9494  -95.2012   -2.8610
  1386  Ag      3.9399  -95.2068    2.8688
  1387  Ag      0.0000  -98.2184    0.0000
  1388  Ag      5.4085  -49.1040    7.5172
  1389  Ag     10.2943  -46.6679    7.5173
  1390  Ag     15.1800  -44.2317    7.5173
  1391  Ag     20.0657  -41.7955    7.5173
  1392  Ag     24.9514  -39.3594    7.5173
  1393  Ag     29.8372  -36.9232    7.5173
  1394  Ag     34.7229  -34.4870    7.5173
  1395  Ag     39.6086  -32.0509    7.5173
  1396  Ag      6.9194  -46.6654   12.1591
  1397  Ag     11.8052  -44.2292   12.1591
  1398  Ag     16.6909  -41.7930   12.1591
  1399  Ag     21.5766  -39.3569   12.1591
  1400  Ag     26.4623  -36.9207   12.1591
  1401  Ag     31.3481  -34.4845   12.1591
  1402  Ag     36.2338  -32.0483   12.1592
  1403  Ag      8.4303  -44.2267   16.8010
  1404  Ag     13.3161  -41.7905   16.8010
  1405  Ag     18.2018  -39.3543   16.8010
  1406  Ag     23.0875  -36.9182   16.8010
  1407  Ag     27.9733  -34.4820   16.8010
  1408  Ag     32.8590  -32.0458   16.8010
  1409  Ag      9.9413  -41.7880   21.4428
  1410  Ag     14.8270  -39.3518   21.4428
  1411  Ag     19.7127  -36.9157   21.4428
  1412  Ag     24.5984  -34.4795   21.4428
  1413  Ag     29.4842  -32.0433   21.4428
  1414  Ag     11.4522  -39.3493   26.0847
  1415  Ag     16.3379  -36.9132   26.0847
  1416  Ag     21.2236  -34.4770   26.0847
  1417  Ag     26.1093  -32.0408   26.0847
  1418  Ag     12.9631  -36.9107   30.7265
  1419  Ag     17.8488  -34.4745   30.7265
  1420  Ag     22.7345  -32.0383   30.7265
  1421  Ag     14.4740  -34.4720   35.3684
  1422  Ag     19.3597  -32.0358   35.3684
  1423  Ag     15.9849  -32.0333   40.0102
  1424  Ag      9.3600  -51.5355   10.3930
  1425  Ag     14.2457  -49.0993   10.3930
  1426  Ag     19.1315  -46.6631   10.3930
  1427  Ag     24.0172  -44.2270   10.3930
  1428  Ag     28.9029  -41.7908   10.3930
  1429  Ag     33.7887  -39.3546   10.3930
  1430  Ag     38.6744  -36.9184   10.3930
  1431  Ag     10.8709  -49.0968   15.0348
  1432  Ag     15.7567  -46.6606   15.0348
  1433  Ag     20.6424  -44.2244   15.0348
  1434  Ag     25.5281  -41.7883   15.0348
  1435  Ag     30.4138  -39.3521   15.0349
  1436  Ag     35.2996  -36.9159   15.0349
  1437  Ag     12.3818  -46.6581   19.6767
  1438  Ag     17.2676  -44.2219   19.6767
  1439  Ag     22.1533  -41.7858   19.6767
  1440  Ag     27.0390  -39.3496   19.6767
  1441  Ag     31.9247  -36.9134   19.6767
  1442  Ag     13.8927  -44.2194   24.3185
  1443  Ag     18.7785  -41.7833   24.3185
  1444  Ag     23.6642  -39.3471   24.3185
  1445  Ag     28.5499  -36.9109   24.3186
  1446  Ag     15.4037  -41.7808   28.9604
  1447  Ag     20.2894  -39.3446   28.9604
  1448  Ag     25.1751  -36.9084   28.9604
  1449  Ag     16.9146  -39.3421   33.6022
  1450  Ag     21.8003  -36.9059   33.6022
  1451  Ag     18.4255  -36.9034   38.2441
  1452  Ag     13.3115  -53.9669   13.2687
  1453  Ag     18.1972  -51.5307   13.2687
  1454  Ag     23.0830  -49.0946   13.2687
  1455  Ag     27.9687  -46.6584   13.2687
  1456  Ag     32.8544  -44.2222   13.2687
  1457  Ag     37.7401  -41.7860   13.2687
  1458  Ag     14.8224  -51.5282   17.9105
  1459  Ag     19.7081  -49.0920   17.9105
  1460  Ag     24.5939  -46.6559   17.9106
  1461  Ag     29.4796  -44.2197   17.9106
  1462  Ag     34.3653  -41.7835   17.9106
  1463  Ag     16.3333  -49.0895   22.5524
  1464  Ag     21.2191  -46.6534   22.5524
  1465  Ag     26.1048  -44.2172   22.5524
  1466  Ag     30.9905  -41.7810   22.5524
  1467  Ag     17.8442  -46.6509   27.1943
  1468  Ag     22.7300  -44.2147   27.1943
  1469  Ag     27.6157  -41.7785   27.1943
  1470  Ag     19.3551  -44.2122   31.8361
  1471  Ag     24.2409  -41.7760   31.8361
  1472  Ag     20.8660  -41.7735   36.4780
  1473  Ag     17.2630  -56.3983   16.1444
  1474  Ag     22.1487  -53.9621   16.1444
  1475  Ag     27.0344  -51.5260   16.1444
  1476  Ag     31.9202  -49.0898   16.1444
  1477  Ag     36.8059  -46.6536   16.1444
  1478  Ag     18.7739  -53.9596   20.7863
  1479  Ag     23.6596  -51.5235   20.7863
  1480  Ag     28.5454  -49.0873   20.7863
  1481  Ag     33.4311  -46.6511   20.7863
  1482  Ag     20.2848  -51.5210   25.4281
  1483  Ag     25.1705  -49.0848   25.4281
  1484  Ag     30.0563  -46.6486   25.4281
  1485  Ag     21.7957  -49.0823   30.0700
  1486  Ag     26.6814  -46.6461   30.0700
  1487  Ag     23.3066  -46.6436   34.7118
  1488  Ag     21.2145  -58.8297   19.0201
  1489  Ag     26.1002  -56.3936   19.0201
  1490  Ag     30.9859  -53.9574   19.0201
  1491  Ag     35.8717  -51.5212   19.0202
  1492  Ag     22.7254  -56.3911   23.6620
  1493  Ag     27.6111  -53.9549   23.6620
  1494  Ag     32.4968  -51.5187   23.6620
  1495  Ag     24.2363  -53.9524   28.3038
  1496  Ag     29.1220  -51.5162   28.3038
  1497  Ag     25.7472  -51.5137   32.9457
  1498  Ag     25.1660  -61.2612   21.8958
  1499  Ag     30.0517  -58.8250   21.8959
  1500  Ag     34.9374  -56.3888   21.8959
  1501  Ag     26.6769  -58.8225   26.5377
  1502  Ag     31.5626  -56.3863   26.5377
  1503  Ag     28.1878  -56.3838   31.1796
  1504  Ag     29.1175  -63.6926   24.7716
  1505  Ag     34.0032  -61.2564   24.7716
  1506  Ag     30.6284  -61.2539   29.4134
  1507  Ag     33.0690  -66.1240   27.6473
  1508  Ag     -1.5543  -51.5464    4.6462
  1509  Ag      2.3979  -53.9794    7.5167
  1510  Ag      6.3501  -56.4123   10.3873
  1511  Ag     10.3024  -58.8453   13.2578
  1512  Ag     14.2546  -61.2782   16.1283
  1513  Ag     18.2069  -63.7111   18.9989
  1514  Ag     22.1591  -66.1441   21.8694
  1515  Ag     26.1113  -68.5770   24.7399
  1516  Ag     30.0636  -71.0099   27.6104
  1517  Ag     -0.0434  -49.1078    9.2881
  1518  Ag      3.9088  -51.5407   12.1586
  1519  Ag      7.8610  -53.9736   15.0291
  1520  Ag     11.8133  -56.4066   17.8996
  1521  Ag     15.7655  -58.8395   20.7702
  1522  Ag     19.7178  -61.2725   23.6407
  1523  Ag     23.6700  -63.7054   26.5112
  1524  Ag     27.6223  -66.1383   29.3818
  1525  Ag      1.4675  -46.6691   13.9299
  1526  Ag      5.4197  -49.1020   16.8004
  1527  Ag      9.3720  -51.5350   19.6710
  1528  Ag     13.3242  -53.9679   22.5415
  1529  Ag     17.2764  -56.4008   25.4120
  1530  Ag     21.2287  -58.8338   28.2826
  1531  Ag     25.1809  -61.2667   31.1531
  1532  Ag      2.9784  -44.2304   18.5718
  1533  Ag      6.9306  -46.6634   21.4423
  1534  Ag     10.8829  -49.0963   24.3128
  1535  Ag     14.8351  -51.5292   27.1834
  1536  Ag     18.7873  -53.9622   30.0539
  1537  Ag     22.7396  -56.3951   32.9244
  1538  Ag      4.4893  -41.7917   23.2136
  1539  Ag      8.4415  -44.2247   26.0842
  1540  Ag     12.3938  -46.6576   28.9547
  1541  Ag     16.3460  -49.0906   31.8252
  1542  Ag     20.2983  -51.5235   34.6957
  1543  Ag      6.0002  -39.3531   27.8555
  1544  Ag      9.9524  -41.7860   30.7260
  1545  Ag     13.9047  -44.2190   33.5965
  1546  Ag     17.8569  -46.6519   36.4671
  1547  Ag      7.5111  -36.9144   32.4973
  1548  Ag     11.4633  -39.3473   35.3679
  1549  Ag     15.4156  -41.7803   38.2384
  1550  Ag      9.0220  -34.4757   37.1392
  1551  Ag     12.9743  -36.9087   40.0097
  1552  Ag     10.5329  -32.0371   41.7810
  1553  Ag     -3.0548  -53.9816    9.2927
  1554  Ag      0.8974  -56.4145   12.1633
  1555  Ag      4.8497  -58.8475   15.0338
  1556  Ag      8.8019  -61.2804   17.9043
  1557  Ag     12.7541  -63.7134   20.7749
  1558  Ag     16.7064  -66.1463   23.6454
  1559  Ag     20.6586  -68.5792   26.5159
  1560  Ag     24.6109  -71.0122   29.3864
  1561  Ag     -1.5439  -51.5429   13.9346
  1562  Ag      2.4083  -53.9759   16.8051
  1563  Ag      6.3606  -56.4088   19.6757
  1564  Ag     10.3128  -58.8417   22.5462
  1565  Ag     14.2651  -61.2747   25.4167
  1566  Ag     18.2173  -63.7076   28.2872
  1567  Ag     22.1695  -66.1406   31.1578
  1568  Ag     -0.0330  -49.1043   18.5765
  1569  Ag      3.9192  -51.5372   21.4470
  1570  Ag      7.8715  -53.9701   24.3175
  1571  Ag     11.8237  -56.4031   27.1880
  1572  Ag     15.7760  -58.8360   30.0586
  1573  Ag     19.7282  -61.2690   32.9291
  1574  Ag      1.4779  -46.6656   23.2183
  1575  Ag      5.4301  -49.0985   26.0888
  1576  Ag      9.3824  -51.5315   28.9594
  1577  Ag     13.3346  -53.9644   31.8299
  1578  Ag     17.2869  -56.3973   34.7004
  1579  Ag      2.9888  -44.2269   27.8602
  1580  Ag      6.9411  -46.6598   30.7307
  1581  Ag     10.8933  -49.0928   33.6012
  1582  Ag     14.8455  -51.5257   36.4718
  1583  Ag      4.4997  -41.7882   32.5020
  1584  Ag      8.4520  -44.2212   35.3726
[...]
       11        delta  0.1166202848538E-02
 
 Total induced dipole moment in DIM system : 
 Real:    -3.85556820    7.98335795    3.43309606
 Imag:     0.01079292    6.09098263    0.31018810
 
 CRIT  2.669208982963385E-003
 iter. 12 V(1) measure  0.3727817893817E+03
       12        delta  0.5692144130762E-03
 
 Total induced dipole moment in DIM system : 
 Real:     7.77312232   -0.79442260   -3.01858707
 Imag:     3.82053702    3.99636726   -1.91065060
 
 CRIT  1.274897811138850E-003
 iter. 13 V(1) measure  0.3727816877984E+03
       13        delta  0.1015832701228E-03
 *** convergence reached
 
 Total induced dipole moment in DIM system : 
 Real:    17.68778270 -811.91493451    8.13236389
 Imag:    -7.09300562-3129.12316718    4.36072750
 
 Re: spin            1 alfa_yx:    7.28563978574009     
 Im: spin            1 alfa_yx:   -2.52380637548583     
 Re: spin            1 alfa_yy:   -533.674624418790     
 Im: spin            1 alfa_yy:   -1359.00530571979     
 Re: spin            1 alfa_yz:    1.65702571795920     
 Im: spin            1 alfa_yz:    3.46501166363489     
    using first order VWN potential
 
    NOTE: We will NOT use the GGA kernel (input option ALDA was set)
 
 
 Total induced dipole moment in DIM system : 
 Real:    -2.42413106    9.59684255 -540.82025288
 Imag:    -3.87213477   17.43909415  726.46637697
 
 CRIT   1.00000000000000     
 iter.  1 V(1) measure  0.4169292962068E+02
 *** convergence criterion : .4169293E-04
 
 Total induced dipole moment in DIM system : 
 Real:    -0.03176043    0.00366982   -7.32758882
 Imag:    -0.00653340    0.36813794    8.54960279
 
 CRIT   84.1867218828221     
 iter.  2 V(1) measure  0.2144702345642E+02
        2        delta  0.2024590616426E+02
 
 Total induced dipole moment in DIM system : 
 Real:     0.07032851   -0.17127206   -8.18717113
 Imag:    -0.12522453   -0.27591916   -9.86106314
 
 CRIT   11.5570665739674     
 iter.  3 V(1) measure  0.2743416926889E+02
        3        delta  0.5987145812474E+01
 
 Total induced dipole moment in DIM system : 
 Real:    -0.01594261    0.16359174   11.87870588
 Imag:     0.13851283   -0.49259941    2.12649885
 
 CRIT   16.0594509294984     
 iter.  4 V(1) measure  0.2487014806828E+02
        4        delta  0.2564021200611E+01
 
 Total induced dipole moment in DIM system : 
 Real:     0.06769731   -0.19051754    0.35386961
 Imag:    -0.03922463    1.75589359    0.50855060
 
 CRIT   1.30583343210665     
 iter.  5 V(1) measure  0.2489431932464E+02
        5        delta  0.2417125635667E-01
 
 Total induced dipole moment in DIM system : 
 Real:    -0.25843032   -0.05166855    2.19425334
 Imag:    -0.03557662    0.95351908    2.46593257
 
 CRIT   1.41275995104121     
 iter.  6 V(1) measure  0.2484075359447E+02
        6        delta  0.5356573016696E-01
 
 Total induced dipole moment in DIM system : 
 Real:     2.19457020    0.84619535   -2.29450057
 Imag:    -0.04410208   -7.87668712   -3.55500690
 
 CRIT  0.183685942659795     
 iter.  7 V(1) measure  0.2486062684858E+02
        7        delta  0.1987325411387E-01
 
 Total induced dipole moment in DIM system : 
 Real:    -4.80429459   -0.01878020    0.30371581
 Imag:     0.20887217   -0.20764584   -2.29307741
 
 CRIT  0.120696522544317     
 iter.  8 V(1) measure  0.2487108552543E+02
        8        delta  0.1045867684423E-01
 
 Total induced dipole moment in DIM system : 
 Real:    12.47893898   -1.42409925    5.19350771
 Imag:     0.66176058   15.97413698   -0.41266860
 
 CRIT  1.578819751384567E-002
 iter.  9 V(1) measure  0.2487031062663E+02
        9        delta  0.7748987995519E-03
 
 Total induced dipole moment in DIM system : 
 Real:    -8.89653401   -1.30856892    6.65271016
 Imag:    -1.43943360   16.33709776   -0.26547146
 
 CRIT  1.646540814000430E-002
 iter. 10 V(1) measure  0.2486844245043E+02
       10        delta  0.1868176202798E-02
 
 Total induced dipole moment in DIM system : 
 Real:     0.60629372    3.59567133   -1.71884755
 Imag:     6.91683238  -37.55396012    0.26216446
 
 CRIT  2.959718743697307E-003
 iter. 11 V(1) measure  0.2486836586473E+02
       11        delta  0.7658569405322E-04
 
 Total induced dipole moment in DIM system : 
 Real:     1.38530514   -1.07012921   -3.29996067
 Imag:   -13.26768263   -9.25986674    0.37259110
 
 CRIT  1.570411479253955E-003
 iter. 12 V(1) measure  0.2486837083275E+02
       12        delta  0.4968017357498E-05
 *** convergence reached
 
 Total induced dipole moment in DIM system : 
 Real:    -0.86854283    2.92668306 -210.80350597
 Imag:    -1.29306602    7.02351162  265.64569645
 
 Re: spin            1 alfa_zx:  -0.183640124160393     
 Im: spin            1 alfa_zx:  -0.497729918730513     
 Re: spin            1 alfa_zy:    1.65697311214990     
 Im: spin            1 alfa_zy:    3.46455162278848     
 Re: spin            1 alfa_zz:   -115.097569357295     
 Im: spin            1 alfa_zz:    24.0166273281027     
 ------------------------------------------
 Convergence acceleration: T
 POLARIZABILITY  
 Frequency  =  0.1322975682     Hartrees
 Wavelength =   344.4005294     nm
 Wavenumber =   29035.96001     cm^{-1}
 Energy     =   3.600000000     eV
 ------------------------------------------
 Polarizability tensor:
                X                   Y                   Z
           -112.91017             7.28553            -0.18410
              7.28564          -533.67462             1.65703
             -0.18364             1.65697          -115.09757

 Isotropic        POLARIZABILITY   =     -253.89     atomic units
 ------------------------------------------
        IMAGINARY POLARIZABILITY           
 ------------------------------------------
                X                   Y                   Z
             24.07354            -2.52424            -0.49761
             -2.52381         -1359.00531             3.46501
             -0.49773             3.46455            24.01663

 Isotropic        POLARIZABILITY   =     -436.97     atomic units
 GNUPLOT  0.132297568200000       -253.894122024898       -436.971713284055     

 Polarizability tensor for DIM system: Frequency-Dependent Real
 
                     X                   Y                   Z
 X          100207.951            -117.210              -0.812
 Y            -117.210          100518.301             -24.774
 Z              -0.812             -24.774          100687.401

 Isotropic Polarizability =        100471.22
 Anisotropic Polarizability =         469.52

 Polarizability tensor for DIM system: Frequency-Dependent Imag
 
                     X                   Y                   Z
 X          350410.696             168.594              75.524
 Y             168.594          350248.028            -166.167
 Z              75.524            -166.167          350089.111

 Isotropic Polarizability =        350249.28
 Anisotropic Polarizability =         512.62

 Efficiencies and Cross-Sections

            qAbs       qScat        qExt        cAbs       cScat        cExt
      5.7346E-02  3.0254E-03  6.0372E-02  9.4688E-01  4.9954E-02  9.9684E-01
 



 =======================================================================
 Electrostatic potential at the Nuclei due to electrons and other nuclei
 =======================================================================
  
         Atom                  Potential
         ----                  ---------
     1)   C                  14.76901199
     2)   C                  14.76939869
     3)   C                  14.76926364
     4)   C                  14.76901178
     5)   C                  14.76939831
     6)   C                  14.76925314
     7)   H                   1.10107657
     8)   H                   1.10107440
     9)   H                   1.10113084
    10)   H                   1.10107773
    11)   H                   1.10106490
    12)   H                   1.10113216
 
 
 ========================
 No memory problems found
 ========================
 
 Maximum number of active allocate calls:        1279
 
 *******************************************************************************

                             A D F   E X I T
 NORMAL TERMINATION



 =================
 Timing Statistics
 =================
  
 Total Used :                     CPU=      345.03      System=        1.93     Elapsed=      347.60

 Calls  Section                     ( Mean, Percentage )
 ---------------------------------------------------------------------------------------------------
     3  ><      ................      0.00    0.00             0.00    0.28             0.01    0.01
     1  INIT    ................      0.41    0.12             0.00    0.03             0.41    0.12
     1  GEOMET  ................      0.05    0.01             0.00    0.11             0.05    0.01
     1  FRAGM   ................      0.01    0.00             0.02    0.82             0.03    0.01
     1  INPUTA  ................      0.00    0.00             0.00    0.01             0.00    0.00
     1  ATDEN   ................      0.00    0.00             0.00    0.14             0.00    0.00
     1  MAINSY  ................      0.01    0.00             0.01    0.47             0.02    0.01
     1  SYMFIT  ................      0.00    0.00             0.00    0.21             0.00    0.00
     1  CORORT  ................      0.00    0.00             0.00    0.01             0.00    0.00
     1  SYMORB  ................      0.00    0.00             0.00    0.00             0.00    0.00
     1  CLSMAT  ................      0.01    0.00             0.00    0.11             0.01    0.00
     1  ORTHON  ................      0.01    0.00             0.00    0.12             0.01    0.00
     1  GENPT   ................      0.07    0.02             0.01    0.55             0.08    0.02
     1  PTBAS   ................      0.05    0.02             0.01    0.26             0.06    0.02
    13  FOCKY   ................      4.40   16.60             0.03   17.12             4.48   16.74
    13  FOCKTR  ................      0.00    0.01             0.00    0.11             0.00    0.01
    13  SDIIS   ................      0.00    0.01             0.00    0.40             0.00    0.01
     1  COREPS  ................     11.67    3.38             0.21   10.79            11.88    3.42
     1  TOTEN   ................      0.65    0.19             0.01    0.41             0.66    0.19
     1  POPAN   ................      0.01    0.00             0.00    0.00             0.01    0.00
     1  DEBYE   ................      0.01    0.00             0.01    0.75             0.02    0.01
     1  INPUTE  ................      0.00    0.00             0.00    0.04             0.00    0.00
     1  SYMORE  ................      0.00    0.00             0.00    0.05             0.00    0.00
     1  METS    ................      0.00    0.00             0.00    0.00             0.00    0.00
     1  CETS    ................      0.01    0.00             0.00    0.00             0.01    0.00
     1  ELNRGY  ................      0.01    0.00             0.00    0.00             0.01    0.00
     1  POPUL   ................      0.01    0.00             0.00    0.00             0.01    0.00
     1  AORESPONSE .............    274.69   79.61             1.21   62.65           275.92   79.38
     1  EXIT PROCEDURE .........      0.02    0.00             0.09    4.57             0.10    0.03


 Currently Open Files (EXIT00)
 ====================

 Unit    Access Format  Status   Type       Ident (file)
 -------------------------------------------------------
   3      SEQ    FORM   TRANSP  NORMAL      LOGFILE
                                          ( logfile )

 ***************************************************************************************************
 (LOGFILE)
 <Sep29-2020> <17:12:44>  ADF 2019  RunTime: Sep29-2020 17:12:44  Nodes: 1  Procs: 1
 <Sep29-2020> <17:12:44>  Hydrogen (TZP)
 <Sep29-2020> <17:12:44>  RunType   : CREATE
 <Sep29-2020> <17:12:44>  Net Charge: 0 (Nuclei minus Electrons)
 <Sep29-2020> <17:12:44>  Symmetry  : ATOM
  Coordinates
    Atom         X           Y           Z   (Angstrom)
    1.H         0.000000    0.000000    0.000000
 <Sep29-2020> <17:12:44>  >>>> CORORT
 <Sep29-2020> <17:12:44>  >>>> CLSMAT
 <Sep29-2020> <17:12:44>  >>>> ORTHON
 <Sep29-2020> <17:12:44>  >>>> GENPT
 <Sep29-2020> <17:12:44>  Block Length=  64
 <Sep29-2020> <17:12:44>  >>>> PTBAS
 <Sep29-2020> <17:12:44>  >>>> CYCLE
 <Sep29-2020> <17:12:44>              |Error|         MaxErr       Wt(A-DIIS)
 <Sep29-2020> <17:12:44>      1      0.00000000      0.00000000
 <Sep29-2020> <17:12:44>      2      0.03052909      0.02968459
 <Sep29-2020> <17:12:44>      3      0.00718138      0.00670742    100.0
 <Sep29-2020> <17:12:44>      4      0.00117303      0.00114116      0.1
 <Sep29-2020> <17:12:44>      5      0.00002783      0.00002380      0.0
 <Sep29-2020> <17:12:44>      6      0.00000153      0.00000130      0.0
 <Sep29-2020> <17:12:44>      7      0.00000000      0.00000000      0.0
 <Sep29-2020> <17:12:44>  SCF converged
 <Sep29-2020> <17:12:44>      8      0.00000000      0.00000000      0.0
 <Sep29-2020> <17:12:44>  >>>> POPAN
 <Sep29-2020> <17:12:44>  >>>> DEBYE
 <Sep29-2020> <17:12:44>  NORMAL TERMINATION
 <Sep29-2020> <17:12:44>  END
 <Sep29-2020> <17:12:44>  ADF 2019  RunTime: Sep29-2020 17:12:44  Nodes: 1  Procs: 1
 <Sep29-2020> <17:12:44>  Carbon (TZP)
 <Sep29-2020> <17:12:44>  RunType   : CREATE
 <Sep29-2020> <17:12:44>  Net Charge: 0 (Nuclei minus Electrons)
 <Sep29-2020> <17:12:44>  Symmetry  : ATOM
  Coordinates
    Atom         X           Y           Z   (Angstrom)
    1.C         0.000000    0.000000    0.000000
 <Sep29-2020> <17:12:45>  >>>> CORORT
 <Sep29-2020> <17:12:45>  >>>> CLSMAT
 <Sep29-2020> <17:12:45>  >>>> ORTHON
 <Sep29-2020> <17:12:45>  >>>> GENPT
 <Sep29-2020> <17:12:45>  Block Length=  72
 <Sep29-2020> <17:12:45>  >>>> PTBAS
 <Sep29-2020> <17:12:45>  >>>> CYCLE
 <Sep29-2020> <17:12:45>              |Error|         MaxErr       Wt(A-DIIS)
 <Sep29-2020> <17:12:45>      1      0.00000000      0.00000000
 <Sep29-2020> <17:12:45>      2      4.48324754      3.31969244    100.0
 <Sep29-2020> <17:12:45>      3      1.61537707      1.30410194    100.0
 <Sep29-2020> <17:12:45>      4      0.72706284      0.59053131    100.0
 <Sep29-2020> <17:12:45>      5      0.40898688      0.33263800    100.0
 <Sep29-2020> <17:12:45>      6      0.13548919      0.10594416    100.0
 <Sep29-2020> <17:12:45>      7      0.11406432      0.09088019     90.8
 <Sep29-2020> <17:12:45>      8      0.01170325      0.00926551      8.3
 <Sep29-2020> <17:12:45>      9      0.00078015      0.00061791      0.0
 <Sep29-2020> <17:12:45>     10      0.00000178      0.00000107      0.0
 <Sep29-2020> <17:12:45>     11      0.00000024      0.00000019      0.0
 <Sep29-2020> <17:12:45>     12      0.00000000      0.00000000      0.0
 <Sep29-2020> <17:12:45>  SCF converged
 <Sep29-2020> <17:12:45>     13      0.00000000      0.00000000      0.0
 <Sep29-2020> <17:12:45>  >>>> POPAN
 <Sep29-2020> <17:12:45>  >>>> DEBYE
 <Sep29-2020> <17:12:45>  NORMAL TERMINATION
 <Sep29-2020> <17:12:45>  END
 <Sep29-2020> <17:12:45>  ADF 2019  RunTime: Sep29-2020 17:12:45  Nodes: 1  Procs: 6
 <Sep29-2020> <17:12:45>  None
 <Sep29-2020> <17:12:45>  RunType   : SINGLE POINT
 <Sep29-2020> <17:12:46>  INPUT SYMMETRY IGNORED IN DIM/QM
 <Sep29-2020> <17:12:46>  Net Charge: 0 (Nuclei minus Electrons)
 <Sep29-2020> <17:12:46>  Symmetry  : NOSYM
 <Sep29-2020> <17:12:46>  >>>> FRAGM
  Coordinates
    Atom         X           Y           Z   (Angstrom)
    1.C         0.029398    4.000000   -1.399399
    2.C        -1.197254    4.000000   -0.723871
    3.C        -1.227266    4.000000    0.672102
    4.C        -0.029398    4.000000    1.399399
    5.C         1.197254    4.000000    0.723871
    6.C         1.227266    4.000000   -0.672102
    7.H        -2.128751    4.000000   -1.292627
    8.H        -2.181851    4.000000    1.201456
    9.H        -0.053413    4.000000    2.490957
   10.H         2.128751    4.000000    1.292622
   11.H         2.181951    4.000000   -1.201456
   12.H         0.053313    4.000000   -2.490957
 <Sep29-2020> <17:12:46>  >>>> CORORT
 <Sep29-2020> <17:12:46>  >>>> CLSMAT
 <Sep29-2020> <17:12:46>  >>>> ORTHON
 <Sep29-2020> <17:12:46>  >>>> GENPT
 <Sep29-2020> <17:12:46>  Block Length= 128
 <Sep29-2020> <17:12:46>  >>>> PTBAS
 <Sep29-2020> <17:12:46>  >>>> CYCLE
 <Sep29-2020> <17:12:46>              |Error|         MaxErr       Wt(A-DIIS)
 <Sep29-2020> <17:12:46>      1      5.99099477      0.98105849
 <Sep29-2020> <17:12:58>      2      0.89023697      0.18522772    100.0
 <Sep29-2020> <17:13:02>      3      0.52126548      0.10196500    100.0
 <Sep29-2020> <17:13:06>      4      0.73857515      0.17036882    100.0
 <Sep29-2020> <17:13:11>      5      0.07493263      0.01043275      9.5
 <Sep29-2020> <17:13:15>      6      0.01066211      0.00168343      0.7
 <Sep29-2020> <17:13:19>      7      0.00152526      0.00038715      0.0
 <Sep29-2020> <17:13:23>      8      0.00087403      0.00020111      0.0
 <Sep29-2020> <17:13:27>      9      0.00021648      0.00004985      0.0
 <Sep29-2020> <17:13:31>     10      0.00004393      0.00000879      0.0
 <Sep29-2020> <17:13:36>     11      0.00002254      0.00000598      0.0
 <Sep29-2020> <17:13:40>     12      0.00000119      0.00000026      0.0
 <Sep29-2020> <17:13:40>  SCF converged
 <Sep29-2020> <17:13:44>     13      0.00000028      0.00000008      0.0
 <Sep29-2020> <17:13:56>  >>>> TOTEN
 <Sep29-2020> <17:13:57>  >>>> POPAN
 <Sep29-2020> <17:13:57>  >>>> DEBYE
 <Sep29-2020> <17:13:57>  >>>> AMETS
 <Sep29-2020> <17:13:57>  >>>> POPUL
 <Sep29-2020> <17:14:32>     1 V(1)  0.4287165E+02
 <Sep29-2020> <17:14:37>     2 V(1)  0.2242494E+02
 <Sep29-2020> <17:14:43>     3 V(1)  0.2851760E+02
 <Sep29-2020> <17:14:49>     4 V(1)  0.2592768E+02
 <Sep29-2020> <17:14:55>     5 V(1)  0.2584521E+02
 <Sep29-2020> <17:15:01>     6 V(1)  0.2585182E+02
 <Sep29-2020> <17:15:07>     7 V(1)  0.2587633E+02
 <Sep29-2020> <17:15:13>     8 V(1)  0.2587937E+02
 <Sep29-2020> <17:15:19>     9 V(1)  0.2587912E+02
 <Sep29-2020> <17:15:25>    10 V(1)  0.2587840E+02
 <Sep29-2020> <17:15:31>    11 V(1)  0.2587801E+02
 <Sep29-2020> <17:15:37>    12 V(1)  0.2587794E+02
 <Sep29-2020> <17:15:43>    13 V(1)  0.2587797E+02
 <Sep29-2020> <17:15:49>    14 V(1)  0.2587800E+02
 <Sep29-2020> <17:15:55>    15 V(1)  0.2587801E+02
 <Sep29-2020> <17:15:55>   convergence reached
 <Sep29-2020> <17:16:04>     1 V(1)  0.4357931E+03
 <Sep29-2020> <17:16:09>     2 V(1)  0.3782939E+03
 <Sep29-2020> <17:16:15>     3 V(1)  0.3721479E+03
 <Sep29-2020> <17:16:21>     4 V(1)  0.3702721E+03
 <Sep29-2020> <17:16:27>     5 V(1)  0.3737402E+03
 <Sep29-2020> <17:16:33>     6 V(1)  0.3739472E+03
 <Sep29-2020> <17:16:39>     7 V(1)  0.3727187E+03
 <Sep29-2020> <17:16:45>     8 V(1)  0.3727462E+03
 <Sep29-2020> <17:16:51>     9 V(1)  0.3727819E+03
 <Sep29-2020> <17:16:57>    10 V(1)  0.3727835E+03
 <Sep29-2020> <17:17:03>    11 V(1)  0.3727824E+03
 <Sep29-2020> <17:17:09>    12 V(1)  0.3727818E+03
 <Sep29-2020> <17:17:15>    13 V(1)  0.3727817E+03
 <Sep29-2020> <17:17:15>   convergence reached
 <Sep29-2020> <17:17:24>     1 V(1)  0.4169293E+02
 <Sep29-2020> <17:17:30>     2 V(1)  0.2144702E+02
 <Sep29-2020> <17:17:36>     3 V(1)  0.2743417E+02
 <Sep29-2020> <17:17:41>     4 V(1)  0.2487015E+02
 <Sep29-2020> <17:17:47>     5 V(1)  0.2489432E+02
 <Sep29-2020> <17:17:53>     6 V(1)  0.2484075E+02
 <Sep29-2020> <17:17:59>     7 V(1)  0.2486063E+02
 <Sep29-2020> <17:18:05>     8 V(1)  0.2487109E+02
 <Sep29-2020> <17:18:11>     9 V(1)  0.2487031E+02
 <Sep29-2020> <17:18:17>    10 V(1)  0.2486844E+02
 <Sep29-2020> <17:18:23>    11 V(1)  0.2486837E+02
 <Sep29-2020> <17:18:29>    12 V(1)  0.2486837E+02
 <Sep29-2020> <17:18:29>   convergence reached
 <Sep29-2020> <17:18:33>  NORMAL TERMINATION
 <Sep29-2020> <17:18:33>  END
